<?xml version="1.0"?>
<VTKFile type="UnstructuredGrid"  version="0.1"  >
<UnstructuredGrid>
<Piece  NumberOfPoints="3594" NumberOfCells="14547">
<Points>
<DataArray  type="Float64"  NumberOfComponents="3"  format="ascii">0 0 -4000  0 250000 -4000  250000 0 0  250000 250000 0  135000 0 -60000  135000 250000 -60000  250000 0 -60000  250000 250000 -60000  65308.5 173604.8 0  78441.2 185529.2 0  65707.89999999999 168017.6 0  73555.60000000001 174095.8 0  61257.8 157386.9 0  65291.6 154352.5 0  82112.3 172814.3 0  58804.1 138685.6 0  106822.8 190893.8 0  60152.4 136426.2 0  144960.9 230041.9 0  88660.10000000001 163931.9 0  134829.2 208246.3 0  82409 149993.8 0  65214.4 127836 0  67249.7 122418.9 0  91916.7 141284.3 0  125498.1 99698.5 0  111195.9 162013.4 0  92905.39999999999 131283.2 0  77176.5 109747.4 0  90809.3 124059.5 0  107806.1 141615.9 0  104439.5 126126.3 0  137051.8 160541 0  118095 132800.4 0  82238.39999999999 90851.5 0  84123.2 92291 0  98197.5 105309.4 0  105163 104713.8 0  154799.8 153672.9 0  133655.9 122823.1 0  111467 94557.3 0  106995.1 77971.8 0  149450.7 123239.8 0  192061 157764 0  133903.2 45232 0  140000 0 0  136000 250000 0  9714.285714284615 250000 -3714.285714285747  19428.57142857481 250000 -3428.571428571329  29142.85714285597 250000 -3142.857142857177  38857.14285713715 250000 -2857.142857143025  48571.42857141832 250000 -2571.428571428873  58285.71428569948 250000 -2285.714285714721  67999.99999998066 250000 -2000.000000000569  77714.28571426184 250000 -1714.285714286416  87428.571428543 250000 -1428.571428572265  97142.85714282417 250000 -1142.857142858113  106857.1428571053 250000 -857.1428571439606  116571.4285713865 250000 -571.4285714298085  126285.7142856677 250000 -285.7142857156564  250000 240000.0000000016 0  250000 230000.0000000032 0  250000 220000.0000000048 0  250000 210000.0000000064 0  250000 200000.0000000079 0  250000 190000.0000000095 0  250000 180000.0000000111 0  250000 170000.0000000127 0  250000 160000.0000000143 0  250000 150000.0000000159 0  250000 140000.0000000175 0  250000 130000.0000000191 0  250000 119999.9999999916 0  250000 109999.9999999825 0  250000 99999.99999998408 0  250000 89999.99999998568 0  250000 79999.99999998725 0  250000 69999.99999998885 0  250000 59999.99999999045 0  250000 49999.99999999205 0  250000 39999.99999999366 0  250000 29999.99999999526 0  250000 19999.9999999968 0  250000 9999.999999998399 0  130000 0 -285.714285714285  120000 0 -571.4285714285701  110000.0000000001 0 -857.1428571428546  100000.0000000001 0 -1142.857142857139  90000.00000000017 0 -1428.571428571424  80000.0000000002 0 -1714.285714285709  70000.00000000025 0 -1999.999999999993  60000.00000000026 0 -2285.714285714278  50000.00000000023 0 -2571.428571428565  40000.00000000019 0 -2857.142857142852  30000.00000000015 0 -3142.857142857139  20000.00000000009 0 -3428.571428571426  10000.00000000004 0 -3714.285714285713  0 9999.999999998096 -4000  0 19999.99999999726 -4000  0 29999.99999999545 -4000  0 39999.99999999275 -4000  0 49999.9999999912 -4000  0 59999.99999998965 -4000  0 69999.99999998808 -4000  0 79999.99999998655 -4000  0 89999.99999998501 -4000  0 99999.99999998347 -4000  0 109999.9999999819 -4000  0 119999.9999999804 -4000  0 130000.0000000079 -4000  0 140000.000000017 -4000  0 150000.0000000155 -4000  0 160000.000000014 -4000  0 170000.0000000124 -4000  0 180000.0000000109 -4000  0 190000.0000000093 -4000  0 200000.0000000078 -4000  0 210000.0000000062 -4000  0 220000.0000000047 -4000  0 230000.0000000031 -4000  0 240000.0000000016 -4000  134615.5786831678 8376.221222376078 0  129135.8381374389 16690.61556165003 0  123693.3119097638 25029.34528065769 0  118458.7304757098 33499.41630675747 0  114183.5561631282 42453.40693221996 0  117152.9012549134 51656.5775220433 0  109640.5189223821 56772.26946740811 0  99783.22349336625 58163.79074226946 0  89906.64048415456 59427.041153887 0  80231.83368741472 61714.93090982783 0  73457.07599492084 68333.04562829909 0  74666.1562536891 78126.62096439983 0  77477.57171300898 87678.05180735435 0  78461.83411646895 97534.63399308435 0  75049.04009726809 106816.2708870931 0  69538.50964765088 115103.6313494232 0  63598.75337311435 123095.8011052612 0  58118.08704720287 131402.6075281692 0  54672.56885839759 140685.5429709587 0  54507.01644649181 150612.6283068675 0  56360.01451579022 160386.8607035369 0  59277.85033353963 169905.2699317088 0  62638.60576621335 179274.2426304358 0  68212.99295126265 187459.3754999009 0  75814.40529046141 193858.3467082375 0  84761.00503602097 198204.6515231062 0  94061.92665129391 201734.182040823 0  103676.4565927747 204325.1412130333 0  112974.540309108 207830.3235759034 0  118972.4630267572 215380.3369922852 0  120264.8170507578 225241.997356352 0  123444.1757132735 234565.2722630062 0  129527.245366261 242435.1534677757 0  250000 250000 -9999.999999997535  250000 250000 -19999.99999997662  250000 250000 -29999.9999999377  250000 250000 -39999.99999995799  250000 250000 -49999.999999979  250000 240000.0000000016 -60000  250000 230000.0000000032 -60000  250000 220000.0000000048 -60000  250000 210000.0000000064 -60000  250000 200000.0000000079 -60000  250000 190000.0000000095 -60000  250000 180000.0000000111 -60000  250000 170000.0000000127 -60000  250000 160000.0000000143 -60000  250000 150000.0000000159 -60000  250000 140000.0000000175 -60000  250000 130000.0000000191 -60000  250000 119999.9999999916 -60000  250000 109999.9999999825 -60000  250000 99999.99999998408 -60000  250000 89999.99999998568 -60000  250000 79999.99999998725 -60000  250000 69999.99999998885 -60000  250000 59999.99999999045 -60000  250000 49999.99999999205 -60000  250000 39999.99999999366 -60000  250000 29999.99999999526 -60000  250000 19999.9999999968 -60000  250000 9999.999999998399 -60000  250000 0 -49999.99999997466  250000 0 -39999.99999999574  250000 0 -30000.00000007532  250000 0 -20000.00000005069  250000 0 -10000.00000002534  240416.6666666667 0 -60000  230833.3333333333 0 -60000  221250 0 -60000  211666.6666666667 0 -60000  202083.3333333333 0 -60000  192500 0 -60000  182916.6666666667 0 -60000  173333.3333333333 0 -60000  163750 0 -60000  154166.6666666667 0 -60000  144583.3333333333 0 -60000  240416.6666666667 250000 -60000  230833.3333333333 250000 -60000  221250 250000 -60000  211666.6666666667 250000 -60000  202083.3333333333 250000 -60000  192500 250000 -60000  182916.6666666667 250000 -60000  173333.3333333333 250000 -60000  163750 250000 -60000  154166.6666666667 250000 -60000  144583.3333333333 250000 -60000  135000 240000.0000000016 -60000  135000 230000.0000000032 -60000  135000 220000.0000000048 -60000  135000 210000.0000000064 -60000  135000 200000.0000000079 -60000  135000 190000.0000000095 -60000  135000 180000.0000000111 -60000  135000 170000.0000000127 -60000  135000 160000.0000000143 -60000  135000 150000.0000000159 -60000  135000 140000.0000000175 -60000  135000 130000.0000000191 -60000  135000 119999.9999999916 -60000  135000 109999.9999999825 -60000  135000 99999.99999998408 -60000  135000 89999.99999998568 -60000  135000 79999.99999998725 -60000  135000 69999.99999998885 -60000  135000 59999.99999999045 -60000  135000 49999.99999999205 -60000  135000 39999.99999999366 -60000  135000 29999.99999999526 -60000  135000 19999.9999999968 -60000  135000 9999.999999998399 -60000  9760.266420117418 0 -5952.053284023483  19520.53309387125 0 -7904.10661877425  29307.1102415074 0 -9718.421407375839  39104.7333719938 0 -11473.30036109216  48875.83924532436 0 -13369.19882213981  58571.87012930932 0 -15613.67939664691  68124.11986543986 0 -18408.53002372226  77527.76485865096 0 -21667.33907869995  86719.09466349281 0 -25482.98540480309  95631.92793098884 0 -29908.59492259344  104180.5528547143 0 -35003.66989024555  112449.6580983703 0 -40542.62450796275  120509.52686276 0 -46382.42388125008  127994.6878848568 0 -52930.54997290741  9760.266420117418 250000 -5952.053284023483  19520.53309387125 249999.9999999999 -7904.10661877425  29307.1102415074 250000 -9718.421407375839  39104.7333719938 250000 -11473.30036109216  48875.83924532436 250000 -13369.19882213981  58571.87012930932 250000 -15613.67939664691  68124.11986543986 250000 -18408.53002372226  77527.76485865096 250000 -21667.33907869995  86719.09466349281 250000 -25482.98540480309  95631.92793098884 250000 -29908.59492259344  104180.5528547143 250000 -35003.66989024555  112449.6580983703 250000 -40542.62450796275  120509.52686276 250000 -46382.42388125008  127994.6878848568 250000 -52930.54997290741  145499.999999982 250000 0  154999.999999964 250000 0  164499.999999946 250000 0  173999.999999928 250000 0  183499.99999991 250000 0  192999.9999998977 250000 0  202500.00000009 250000 0  212000.000000072 250000 0  221500.000000054 250000 0  231000.000000036 250000 0  240500.000000018 250000 0  240000.0000001065 0 0  230000.0000002129 0 0  220000.0000003194 0 0  210000.0000004258 0 0  200000.0000005323 0 0  190000.0000006387 0 0  180000.0000006325 0 0  170000.0000004744 0 0  160000.0000003162 0 0  150000.0000001582 0 0  81541.63335874674 35498.13281562441 -1158.202651726381  46004.68664141578 194254.3443995834 -2060.726341037222  32687.99629987251 175105.6839569158 -2219.415882311186  36663.59507600099 63079.34846719183 -2167.093431592842  52002.09530018299 134928.3526843132 -266.7613614382204  59599.13772899003 109177.3480854863 -691.4602217251189  13806.90843888927 84795.87142461444 -3288.608480833754  42042.1003123136 65482.76889364541 -1784.344992951069  85917.78356508871 211210.3489857896 -1084.187284676976  26344.15959288631 140617.4121347481 -2112.437398247788  49350.86723141051 36336.78604214006 -2272.704599832591  21702.40331646254 119880.0690882354 -2466.437976166102  57313.56589490068 220733.4025395545 -2090.49117424689  28866.73893404105 218351.493928639 -3037.311471166797  64300.33793173476 48969.94193502321 -1793.328299662734  52482.25996720623 28090.02703717845 -2196.191483315934  63095.9704402233 54899.2587271606 -1627.600015239288
[...]
<PointData  Vectors="f_68"> 
<DataArray  type="Float64"  Name="f_68"  NumberOfComponents="3" format="ascii">-1.0000000000004748e-01 2.6816516057465962e-13 2.8098898608145299e-14  -1.0000000000005427e-01 5.5075960298156791e-13 5.9660859369847652e-14  -1.0000000000000001e-01 1.2290712003595314e-21 -1.4371672830656696e-22  -1.0000000000000001e-01 -2.7197674655933521e-21 -8.2617292217938373e-22  -9.9999999999976233e-02 8.1161504285610396e-14 2.3872408758660810e-14  -1.0000000000000975e-01 4.2783049967092665e-13 6.5908036821841230e-14  -1.0000000000000001e-01 -7.4574612741528847e-21 1.4359642407465692e-22  -1.0000000000000001e-01 -1.0911703058894312e-20 -2.8495984591180420e-21  -9.9999999999985822e-02 -1.0561434471677885e-13 -1.2936858148244125e-14  -9.9999999999965131e-02 -3.2859214176057710e-13 -3.6163954263966082e-14  -9.9999999999983477e-02 -1.3267618870357192e-13 -1.4867143780176207e-14  -9.9999999999956304e-02 -3.5702247884497807e-13 -4.0680825447470771e-14  -1.0000000000000693e-01 7.8242535708030564e-14 7.8387348889980474e-15  -9.9999999999931338e-02 -4.1016579761918912e-13 -5.1251960947920580e-14  -9.9999999999990374e-02 -1.1128422668738178e-13 -1.1427287482166711e-14  -9.9999999999943495e-02 -2.8393771315944808e-13 -3.6447002256023105e-14  -9.9999999999991068e-02 -2.3583340136034245e-14 -4.2670514530742212e-15  -9.9999999999897837e-02 -5.0073009354116757e-13 -6.5783382274885507e-14  -9.9999999999999922e-02 1.5273061442083482e-16 7.8915545905276517e-18  -9.9999999999991387e-02 -1.2183863488181535e-13 -1.3035820978890245e-14  -1.0000000000000042e-01 3.9704658599522944e-15 6.9611485347437022e-16  -9.9999999999969280e-02 -1.7138838396204216e-13 -2.4708485543675477e-14  -9.9999999999996578e-02 -1.7206721069454347e-14 -1.1883786896362799e-15  -9.9999999999965700e-02 -1.8151786391907968e-13 -2.5095799170693234e-14  -1.0000000000004924e-01 2.8061311399028915e-13 4.0677560891863793e-14  -9.9999999999998271e-02 -5.8372433957755626e-15 -1.2860659436647726e-15  -9.9999999999996939e-02 -2.3855967905026551e-14 -3.4967515317024096e-15  -9.9999999999954167e-02 -2.3762541586369002e-13 -3.5841500106332565e-14  -1.0000000000002159e-01 1.2449423687560143e-13 1.8301747862589211e-14  -9.9999999999989056e-02 -4.5646497271558948e-14 -5.8433625887808209e-15  -1.0000000000000503e-01 2.5016545318789490e-14 3.4997440805467283e-15  -1.0000000000001233e-01 8.5867847912659946e-14 1.3742238020254178e-14  -9.9999999999999978e-02 3.6504125345931450e-16 1.6031016392383142e-17  -9.9999999999995148e-02 -2.8661995178387169e-14 -4.4094065607300717e-15  -1.0000000000001334e-01 8.6403309564084539e-14 1.2292911190555734e-14  -1.0000000000000145e-01 8.9555937111576046e-15 1.4560723982016718e-15  -1.0000000000000682e-01 3.9143895719685406e-14 6.8463842239557082e-15  -9.9999999999997147e-02 -2.2348532580281248e-14 -3.1942788110970078e-15  -9.9999999999999908e-02 -4.7732803263972216e-17 -4.6832485216352934e-17  -9.9999999999997466e-02 -9.4905799433428522e-15 -1.8280677183250946e-15  -1.0000000000000148e-01 5.7057977452888771e-15 1.3170282757900735e-15  -1.0000000000000357e-01 2.4375223666369615e-15 1.7475623012806698e-15  -9.9999999999999853e-02 -4.7422808655733771e-16 -1.0140989859861839e-16  -1.0000000000000001e-01 -7.7947140647030539e-18 -1.9244883630572527e-18  -9.9999999999999201e-02 -6.0715859590736174e-15 -1.0835895741547087e-15  -1.0000000000000013e-01 -3.5398406202480734e-16 -1.1830360996943140e-16  -1.0000000000000038e-01 4.2745832735945153e-15 5.7504785822488117e-16  -9.9999999999972999e-02 -2.9659521031531087e-13 -2.9248117035199863e-14  -9.9999999999958164e-02 -4.2583590224451954e-13 -4.0977321311777320e-14  -1.0000000000005406e-01 5.6311145355047390e-13 5.3359674328425875e-14  -9.9999999999930506e-02 -7.9891589012667199e-13 -7.2439524624747749e-14  -9.9999999999989847e-02 -5.0726567565231071e-14 -5.8018976274748029e-15  -9.9999999999990485e-02 -3.8546781499173233e-13 -2.9506287489837315e-14  -9.9999999999991387e-02 -3.4068266350532009e-13 -2.6045926860970272e-14  -9.9999999999993816e-02 -5.1444307800655089e-14 -5.2239741590132884e-15  -9.9999999999997674e-02 -7.3346057776289082e-14 -6.2842667282036064e-15  -9.9999999999996050e-02 -5.8119947287218714e-14 -5.5075261700560695e-15  -9.9999999999999048e-02 -1.4299444853100233e-14 -1.3800775787458719e-15  -9.9999999999998465e-02 -1.8779416364889200e-14 -2.5662815451459543e-15  -1.0000000000000046e-01 5.2296051057773620e-15 6.6656770253256913e-16  -1.0000000000000001e-01 -1.3608360559096684e-21 -1.2467747989276260e-21  -1.0000000000000001e-01 -9.0607017182745530e-22 8.9634031492483613e-22  -1.0000000000000001e-01 -5.2799714686592924e-21 -8.7245434253901829e-22  -1.0000000000000001e-01 -4.7185334347217975e-21 -3.4880426806266286e-21  -1.0000000000000001e-01 6.1203233193195010e-21 -4.2313852318151290e-22  -1.0000000000000001e-01 -1.9168390328071691e-21 -1.5495474225909065e-21  -1.0000000000000001e-01 -1.7434279105481110e-20 1.5653373482109470e-21  -1.0000000000000001e-01 -5.2610810934753334e-21 1.4860132465584566e-21  -1.0000000000000001e-01 -5.7493618675295735e-21 -1.2598197025487834e-21  -1.0000000000000001e-01 -1.2897163526425403e-20 -2.1313219543725214e-21  -1.0000000000000001e-01 -1.3463879236825708e-20 -6.9583139394643783e-21  -1.0000000000000001e-01 2.0992272616338015e-20 4.3563009533987427e-21  -1.0000000000000001e-01 -9.7988402406136599e-21 9.9623758132449133e-22  -1.0000000000000001e-01 2.6645158521515097e-20 3.0885902961414396e-21  -1.0000000000000001e-01 -8.3988845725812305e-26 9.8962272079512605e-23  -1.0000000000000001e-01 -1.8538744656203050e-20 -1.8677841719294281e-22  -1.0000000000000001e-01 -5.7956874365614500e-21 2.6814315413365713e-21  -1.0000000000000001e-01 9.1094840918535840e-21 4.0377704434649983e-22  -1.0000000000000001e-01 -4.8853351727004146e-21 -2.0144619885274556e-21  -1.0000000000000001e-01 -2.3876792463187684e-21 -1.1856354412969949e-21  -1.0000000000000001e-01 -2.3093425605194814e-21 2.7037177100143712e-22  -1.0000000000000001e-01 -6.0684686539957862e-21 -3.4870285571848354e-22  -1.0000000000000001e-01 -1.1325121925666881e-21 -2.4722077153659904e-22  -1.0000000000000001e-01 2.4323317939281358e-22 1.1623744831274350e-21  -9.9999999999999589e-02 1.4008997434216487e-15 3.5413653776803438e-16  -1.0000000000000160e-01 -3.3187061228730832e-15 -2.7445363812298455e-16  -9.9999999999999520e-02 1.5952068945648877e-15 -6.9727825133217967e-16  -9.9999999999990347e-02 2.9860892583830196e-14 8.5135041255922811e-16  -9.9999999999998326e-02 1.0421848473145690e-15 6.8572846653374408e-16  -1.0000000000001071e-01 -9.0419513864993670e-14 -5.8782961225502366e-15  -9.9999999999984823e-02 -1.1467430987643134e-13 -1.1086702775669446e-14  -9.9999999999960176e-02 -2.6337228319275052e-13 -2.6852843277537845e-14  -9.9999999999959038e-02 -2.2582253468532272e-13 -2.5618994654077722e-14  -9.9999999999929562e-02 -3.4427377290486386e-13 -3.9869043909398833e-14  -1.0000000000005256e-01 2.5684624404219293e-13 2.8768055664536505e-14  -9.9999999999932310e-02 -3.6464285243198555e-13 -3.9087657127212915e-14  -9.9999999999981395e-02 -1.1502272878877012e-13 -1.1794411511137104e-14  -1.0000000000004454e-01 2.6953224834813763e-13 2.5923122462646809e-14  -1.0000000000003927e-01 2.7969252119655280e-13 2.7901127595825590e-14  -1.0000000000003516e-01 2.9266414476449694e-13 2.5989879649302470e-14  -1.0000000000003231e-01 3.0835337432933557e-13 2.5439393710741851e-14  -1.0000000000002814e-01 3.2655384349453640e-13 2.5381067784640444e-14  -1.0000000000002822e-01 3.4533941046499739e-13 2.5561512818172594e-14  -1.0000000000002231e-01 3.6794955236298844e-13 2.8553335782538193e-14  -1.0000000000001931e-01 3.9000981127669379e-13 2.7532143745111531e-14  -1.0000000000001981e-01 4.0917704259865045e-13 3.0075569298114240e-14  -1.0000000000001739e-01 4.2726171129376339e-13 3.3765729059369378e-14  -1.0000000000003495e-01 4.4386524453153804e-13 3.6967340906297358e-14  -1.0000000000003866e-01 4.5662666155813939e-13 4.2835026023441958e-14  -1.0000000000004845e-01 4.7424848098640934e-13 4.5225426298423294e-14  -1.0000000000006262e-01 4.8530633402395208e-13 5.1565904931414654e-14  -1.0000000000006673e-01 5.0001479135566791e-13 5.2511594240282127e-14  -1.0000000000007046e-01 5.0890697500139988e-13 5.3984614023705519e-14  -1.0000000000006636e-01 5.1519188741953349e-13 5.5064471857438197e-14  -1.0000000000006667e-01 5.1937806528769070e-13 5.3760932920383833e-14  -1.0000000000006085e-01 5.2252799049484764e-13 5.6157823503117466e-14  -1.0000000000006189e-01 5.2708060421903871e-13 5.7246738864432886e-14  -1.0000000000005470e-01 5.3311835525668646e-13 5.1799594718212253e-14  -1.0000000000005767e-01 5.3806247050349309e-13 5.7311548517820740e-14  -1.0000000000005227e-01 5.4592769583280136e-13 5.2251969239156421e-14  -1.0000000000005005e-01 5.4813361315883923e-13 5.0762167817170394e-14  -1.0000000000000017e-01 -8.0913792067591165e-16 -2.1191084571114102e-16  -1.0000000000000057e-01 -1.9597079841723137e-15 -5.8644871127869406e-16  -1.0000000000000013e-01 8.9997971312522466e-16 8.4131156856316507e-17  -9.9999999999998729e-02 2.6659038937647731e-15 -1.7785608744281202e-17  -1.0000000000000135e-01 4.4478328199795983e-15 1.2278295817771509e-16  -1.0000000000000067e-01 1.2830926757481746e-14 7.9361014351427709e-16  -1.0000000000000203e-01 2.6486495388439489e-14 2.5099655516436485e-15  -9.9999999999998007e-02 1.0961704721092975e-14 -1.2041066909330097e-16  -9.9999999999946701e-02 -2.0706151627281643e-13 -3.7086130145740309e-14  -9.9999999999971279e-02 -1.3664688652582045e-13 -2.1774144439607652e-14  -9.9999999999971709e-02 -3.3027592687627838e-13 -3.5675822499647446e-14  -9.9999999999982020e-02 -2.5215038708910259e-13 -2.7852217952072690e-14  -9.9999999999971778e-02 -1.9055130096664498e-13 -2.6585882368797042e-14  -9.9999999999974512e-02 -2.1654621149991451e-13 -2.6087549599966788e-14  -9.9999999999976691e-02 -1.7788415789007095e-13 -2.2528271504922932e-14  -9.9999999999982964e-02 -1.3880564101718585e-13 -1.6902483260896547e-14  -9.9999999999928701e-02 -5.6215136241352950e-13 -6.3411908427341921e-14  -9.9999999999903361e-02 -5.9281213146136110e-13 -7.0095861448644905e-14  -9.9999999999966838e-02 -1.5167209590506828e-13 -2.0166532735688049e-14  -1.0000000000006670e-01 5.1992704491103180e-13 5.7398134186212569e-14  -9.9999999999901432e-02 -6.1052832662154034e-13 -7.1331587171293013e-14  -9.9999999999931297e-02 -4.8558011735773871e-13 -5.5061531480198171e-14  -9.9999999999939387e-02 -3.9957937218592514e-13 -4.5295590449269222e-14  -9.9999999999967948e-02 -2.5320473487949180e-13 -2.8371013315811843e-14  -9.9999999999984393e-02 -1.7186242900361253e-13 -1.6980066089188637e-14  -9.9999999999985933e-02 -1.4317244388641466e-13 -1.6082726750493719e-14  -9.9999999999995329e-02 -9.2707788115534609e-14 -8.6411697578315010e-15  -9.9999999999994496e-02 -1.1269414931170035e-14 -2.7673720331642010e-15  -1.0000000000000397e-01 3.8856883729976683e-14 4.4256527495979601e-15  -9.9999999999998188e-02 -2.7436417315565806e-14 -3.0598763098466441e-15  -9.9999999999998992e-02 -1.1656267934587667e-14 -1.5469844819699791e-15  -1.0000000000000081e-01 8.8650085207158427e-15 1.1686760502273428e-15  -1.0000000000000009e-01 1.2519675664434474e-15 1.8595641739307288e-16  -1.0000000000000001e-01 -4.5665437534730634e-21 -5.3721602924125282e-22  -1.0000000000000001e-01 -6.0373707889847286e-21 -1.0029182184063557e-21  -1.0000000000000001e-01 -3.5925178991492430e-20 -4.2840055498080042e-21  -1.0000000000000001e-01 2.3978613994412039e-21 -7.6722781578551087e-22  -1.0000000000000001e-01 1.3004207870717629e-20 3.9205069978063399e-22  -1.0000000000000001e-01 2.5413784359292995e-21 -1.6062630781515634e-21  -1.0000000000000001e-01 5.8445882057192536e-21 2.6689524862976767e-21  -1.0000000000000001e-01 1.1925621472724738e-20 5.3543527210427008e-21  -1.0000000000000001e-01 4.0228279968569558e-20 1.4962647367807447e-20  -1.0000000000000001e-01 -2.1718349051048919e-20 1.4335459748246008e-20  -1.0000000000000001e-01 -1.6802145808366440e-20 -3.2319675888256957e-21  -1.0000000000000001e-01 -6.4518649841737081e-21 -4.6213926088514391e-21  -1.0000000000000001e-01 -5.9851231374460616e-21 -8.4849291363406486e-22  -1.0000000000000001e-01 1.3121948887809248e-20 4.1731538992913832e-21  -1.0000000000000001e-01 1.0735070118140721e-22 1.1534045446757839e-21  -1.0000000000000001e-01 -4.5755643998043563e-21 2.2894592717831786e-22  -1.0000000000000001e-01 -1.8740444937324829e-20 9.9319330412873268e-22  -1.0000000000000001e-01 -6.8140332845795376e-21 1.3616697253942310e-21  -1.0000000000000001e-01 -3.1215498495307165e-20 -1.7590586443952638e-22  -1.0000000000000001e-01 -6.0717891546454752e-20 -1.5010837607862675e-20  -1.0000000000000001e-01 -6.5744755283389283e-20 -1.1170622651824479e-20  -1.0000000000000001e-01 -1.7160297344105277e-20 -9.2564864438360530e-22  -1.0000000000000001e-01 1.9766116994550368e-21 7.9018631409927711e-22  -1.0000000000000001e-01 3.0130435813792944e-21 1.1955149823900598e-22  -1.0000000000000001e-01 3.6923784164730051e-21 -1.2836010151015176e-21  -1.0000000000000001e-01 1.6616144636604937e-20 2.6446179490770211e-21  -1.0000000000000001e-01 2.5100328091860971e-21 2.3649993675668315e-21  -1.0000000000000001e-01 1.7074818016958802e-20 1.8391902228343821e-21  -1.0000000000000001e-01 -5.4611688507449934e-21 -1.1998192432006417e-21  -1.0000000000000001e-01 -9.2307466777834922e-21 -1.0470289494608582e-21  -1.0000000000000001e-01 2.3009596986895805e-21 5.9622191246908743e-22  -1.0000000000000001e-01 4.8180341917205163e-21 9.5826195674017457e-22  -1.0000000000000001e-01 2.0522264954461867e-21 1.7430424656393584e-21  -1.0000000000000001e-01 -2.4587117593017390e-22 6.0132880980680498e-22  -1.0000000000000001e-01 -2.2134183049095604e-20 -2.6046066349608044e-21  -1.0000000000000001e-01 -1.4375176392239921e-20 -6.4905766667702544e-21  -1.0000000000000001e-01 -3.4515523741407497e-20 -1.1426079459482679e-20  -1.0000000000000001e-01 1.0784438264196171e-18 2.6564188150869963e-19  -1.0000000000000001e-01 -1.9203563405083004e-18 -4.2946281913071589e-19  -1.0000000000000001e-01 -6.7618969584364821e-18 -2.1061152533148615e-18  -1.0000000000000001e-01 1.6696905789286679e-17 3.7657176049474947e-18  -1.0000000000000002e-01 -1.0801361710425345e-16 -2.1837994666165369e-17  -1.0000000000000012e-01 -3.7751473491913020e-16 -1.5518464698206693e-16  -9.9999999999999520e-02 1.3138751921297545e-15 3.8770443245879248e-16  -1.0000000000000202e-01 -3.0068522617879891e-15 6.4494404300858321e-16  -1.0000000000000001e-01 2.3194360422808734e-20 6.0646009796569334e-21  -1.0000000000000001e-01 -1.0960411269807849e-20 -6.7354282989305555e-22  -1.0000000000000001e-01 1.3124269478544339e-22 -1.1505548039095966e-20  -1.0000000000000001e-01 9.4782379649906063e-20 3.5944348507458781e-20  -1.0000000000000001e-01 -3.3197632586455431e-18 -6.3642826118093835e-19  -1.0000000000000001e-01 -3.1874573738103136e-17 -4.7784596244557140e-18  -1.0000000000000002e-01 7.5857969848918121e-17 9.7886065165637983e-18  -9.9999999999999867e-02 2.0902652971062294e-15 3.4906806227045363e-16  -1.0000000000000063e-01 -1.5259574991646591e-14 -2.4831472198137036e-15  -1.0000000000000045e-01 5.0120160775130006e-14 7.6141893976255950e-15  -9.9999999999994607e-02 -3.4882628861029092e-13 -5.3018680568446638e-14  -1.0000000000000997e-01 4.2891948078609749e-13 6.5931549470460849e-14  -1.0000000000001680e-01 4.3287663665781220e-13 6.8955832174554076e-14  -1.0000000000002579e-01 4.4012699367953742e-13 7.2450264416425194e-14  -1.0000000000004475e-01 4.5349958584454209e-13 8.2053694087680254e-14  -1.0000000000006846e-01 4.7770060993798226e-13 9.4108645392803519e-14  -1.0000000000008491e-01 4.9708342140885434e-13 1.0122934116162353e-13  -1.0000000000010469e-01 5.2018136338192629e-13 1.0917224646128986e-13  -1.0000000000011988e-01 5.4826875060912061e-13 1.1263624520347000e-13  -1.0000000000012653e-01 5.6368372998513564e-13 1.1132897271540127e-13  -1.0000000000014525e-01 5.8439580095290259e-13 1.1565786546760931e-13  -1.0000000000015406e-01 5.8460407907491059e-13 1.1821173343636983e-13  -1.0000000000016995e-01 5.7794084829490535e-13 1.2306880813054236e-13  -1.0000000000015904e-01 5.5611348788315621e-13 1.1546291414385030e-13  -1.0000000000014793e-01 5.2654388266736733e-13 1.0680292331471339e-13  -1.0000000000013640e-01 4.9111546704192953e-13 9.9457715042454374e-14  -1.0000000000013476e-01 4.5639408586258444e-13 9.7056241522431635e-14  -1.0000000000012096e-01 4.0328242506710519e-13 8.9899726151973586e-14  -1.0000000000009446e-01 3.4633500735418445e-13 7.6878843004603284e-14  -1.0000000000006840e-01 2.8548295075762514e-13 6.4234373620308198e-14  -1.0000000000004519e-01 2.2475068519377471e-13 5.3393365840855788e-14  -1.0000000000002449e-01 1.7483028238629853e-13 4.4461612802186704e-14  -1.0000000000000477e-01 1.3601823966196861e-13 3.6496786007810115e-14  -9.9999999999991221e-02 1.0473163242498075e-13 3.0949850375623837e-14  -9.9999999999980146e-02 8.3243507060677616e-14 2.5913315391452360e-14  -1.0000000000004651e-01 2.6565280727465483e-13 2.7486923617685507e-14  -1.0000000000004797e-01 2.6370533671180677e-13 2.8067814429052112e-14  -1.0000000000004981e-01 2.5678880856252858e-13 2.9056417957809572e-14  -1.0000000000004934e-01 2.4977613532590855e-13 2.8441009553513914e-14  -1.0000000000003990e-01 2.3834029921377144e-13 2.8295489408148505e-14  -1.0000000000002912e-01 2.3162159909009935e-13 2.3305061751109348e-14  -1.0000000000001161e-01 2.1304037051035652e-13 1.9412644191340333e-14  -9.9999999999989736e-02 1.8342262805739875e-13 1.3668087218840921e-14  -9.9999999999974429e-02 1.5552277786673059e-13 1.0491203286422944e-14  -9.9999999999967989e-02 1.2984046050023192e-13 1.0687770909344272e-14  -9.9999999999967490e-02 1.0532455279553165e-13 1.5349481198669338e-14  -9.9999999999970599e-02 9.1580556382579074e-14 2.0422297090301333e-14  -9.9999999999974845e-02 8.2852414288947383e-14 2.3200858066267281e-14  -9.9999999999977593e-02 7.8666786801364558e-14 2.4959033656323718e-14  -1.0000000000005123e-01 5.5271142775577209e-13 5.4144008846063148e-14  -1.0000000000005416e-01 5.5786024060749375e-13 5.3665132988892604e-14  -1.0000000000005420e-01 5.6342859683467328e-13 5.4433792963756448e-14  -1.0000000000004548e-01 5.6617076084879718e-13 5.0641113678043638e-14  -1.0000000000004089e-01 5.5877324335417116e-13 4.9909739644121232e-14  -1.0000000000003585e-01 5.4581562036812652e-13 4.8092313637889829e-14  -1.0000000000003235e-01 5.3467760344819359e-13 4.6895961414685380e-14  -1.0000000000002512e-01 5.1501875049518043e-13 4.4518261453074095e-14  -1.0000000000002657e-01 4.9638814209933020e-13 4.5618253590393609e-14  -1.0000000000003625e-01 4.7591889129079267e-13 5.2450869983815560e-14  -1.0000000000003895e-01 4.5574055532341024e-13 5.8658831132523522e-14  -1.0000000000003291e-01 4.3996482274218970e-13 6.1884667609885339e-14  -1.0000000000002288e-01 4.2832617574380149e-13 6.4523852244635990e-14  -1.0000000000001553e-01 4.3186944992022684e-13 6.6644720871320463e-14  -9.9999999999999922e-02 -1.3928496731323509e-15 -1.8552893722817473e-16  -1.0000000000000001e-01 -9.6744123811842393e-16 -1.4087555694169217e-16  -9.9999999999999992e-02 4.7986622459560693e-17 1.6368513419632808e-18  -1.0000000000000001e-01 4.3533561577255528e-17 9.5346443710303916e-18  -1.0000000000000001e-01 -2.4639579302386938e-17 -4.4900754052162700e-18  -1.0000000000000001e-01 4.7499231457658090e-18 8.3362044873492271e-19  -1.0000000000000001e-01 -1.5511567776598180e-18 -2.4604439522284483e-19  -1.0000000000000001e-01 3.4245450859736906e-19 5.2636964212115237e-20  -1.0000000000000001e-01 -8.8956387557311956e-21 -2.3774378501735252e-21  -1.0000000000000001e-01 2.6447634841948248e-20 6.4532024198248475e-22  -1.0000000000000001e-01 -9.4176230208255915e-21 -8.9323102036089662e-22  -1.0000000000000001e-01 -1.0121362415812928e-20 -1.4093806926963195e-21  -1.0000000000000001e-01 -4.0135534826032100e-21 -1.0543828647136089e-21  -1.0000000000000001e-01 1.4272786215934538e-20 -3.5101143203817939e-21  -1.0000000000000001e-01 6.1136198682942481e-20