<?xml version="1.0"?>
<VTKFile type="UnstructuredGrid"  version="0.1"  >
<UnstructuredGrid>
<Piece  NumberOfPoints="3594" NumberOfCells="14547">
<Points>
<DataArray  type="Float64"  NumberOfComponents="3"  format="ascii">0 0 -4000  0 250000 -4000  250000 0 0  250000 250000 0  135000 0 -60000  135000 250000 -60000  250000 0 -60000  250000 250000 -60000  65308.5 173604.8 0  78441.2 185529.2 0  65707.89999999999 168017.6 0  73555.60000000001 174095.8 0  61257.8 157386.9 0  65291.6 154352.5 0  82112.3 172814.3 0  58804.1 138685.6 0  106822.8 190893.8 0  60152.4 136426.2 0  144960.9 230041.9 0  88660.10000000001 163931.9 0  134829.2 208246.3 0  82409 149993.8 0  65214.4 127836 0  67249.7 122418.9 0  91916.7 141284.3 0  125498.1 99698.5 0  111195.9 162013.4 0  92905.39999999999 131283.2 0  77176.5 109747.4 0  90809.3 124059.5 0  107806.1 141615.9 0  104439.5 126126.3 0  137051.8 160541 0  118095 132800.4 0  82238.39999999999 90851.5 0  84123.2 92291 0  98197.5 105309.4 0  105163 104713.8 0  154799.8 153672.9 0  133655.9 122823.1 0  111467 94557.3 0  106995.1 77971.8 0  149450.7 123239.8 0  192061 157764 0  133903.2 45232 0  140000 0 0  136000 250000 0  9714.285714284615 250000 -3714.285714285747  19428.57142857481 250000 -3428.571428571329  29142.85714285597 250000 -3142.857142857177  38857.14285713715 250000 -2857.142857143025  48571.42857141832 250000 -2571.428571428873  58285.71428569948 250000 -2285.714285714721  67999.99999998066 250000 -2000.000000000569  77714.28571426184 250000 -1714.285714286416  87428.571428543 250000 -1428.571428572265  97142.85714282417 250000 -1142.857142858113  106857.1428571053 250000 -857.1428571439606  116571.4285713865 250000 -571.4285714298085  126285.7142856677 250000 -285.7142857156564  250000 240000.0000000016 0  250000 230000.0000000032 0  250000 220000.0000000048 0  250000 210000.0000000064 0  250000 200000.0000000079 0  250000 190000.0000000095 0  250000 180000.0000000111 0  250000 170000.0000000127 0  250000 160000.0000000143 0  250000 150000.0000000159 0  250000 140000.0000000175 0  250000 130000.0000000191 0  250000 119999.9999999916 0  250000 109999.9999999825 0  250000 99999.99999998408 0  250000 89999.99999998568 0  250000 79999.99999998725 0  250000 69999.99999998885 0  250000 59999.99999999045 0  250000 49999.99999999205 0  250000 39999.99999999366 0  250000 29999.99999999526 0  250000 19999.9999999968 0  250000 9999.999999998399 0  130000 0 -285.714285714285  120000 0 -571.4285714285701  110000.0000000001 0 -857.1428571428546  100000.0000000001 0 -1142.857142857139  90000.00000000017 0 -1428.571428571424  80000.0000000002 0 -1714.285714285709  70000.00000000025 0 -1999.999999999993  60000.00000000026 0 -2285.714285714278  50000.00000000023 0 -2571.428571428565  40000.00000000019 0 -2857.142857142852  30000.00000000015 0 -3142.857142857139  20000.00000000009 0 -3428.571428571426  10000.00000000004 0 -3714.285714285713  0 9999.999999998096 -4000  0 19999.99999999726 -4000  0 29999.99999999545 -4000  0 39999.99999999275 -4000  0 49999.9999999912 -4000  0 59999.99999998965 -4000  0 69999.99999998808 -4000  0 79999.99999998655 -4000  0 89999.99999998501 -4000  0 99999.99999998347 -4000  0 109999.9999999819 -4000  0 119999.9999999804 -4000  0 130000.0000000079 -4000  0 140000.000000017 -4000  0 150000.0000000155 -4000  0 160000.000000014 -4000  0 170000.0000000124 -4000  0 180000.0000000109 -4000  0 190000.0000000093 -4000  0 200000.0000000078 -4000  0 210000.0000000062 -4000  0 220000.0000000047 -4000  0 230000.0000000031 -4000  0 240000.0000000016 -4000  134615.5786831678 8376.221222376078 0  129135.8381374389 16690.61556165003 0  123693.3119097638 25029.34528065769 0  118458.7304757098 33499.41630675747 0  114183.5561631282 42453.40693221996 0  117152.9012549134 51656.5775220433 0  109640.5189223821 56772.26946740811 0  99783.22349336625 58163.79074226946 0  89906.64048415456 59427.041153887 0  80231.83368741472 61714.93090982783 0  73457.07599492084 68333.04562829909 0  74666.1562536891 78126.62096439983 0  77477.57171300898 87678.05180735435 0  78461.83411646895 97534.63399308435 0  75049.04009726809 106816.2708870931 0  69538.50964765088 115103.6313494232 0  63598.75337311435 123095.8011052612 0  58118.08704720287 131402.6075281692 0  54672.56885839759 140685.5429709587 0  54507.01644649181 150612.6283068675 0  56360.01451579022 160386.8607035369 0  59277.85033353963 169905.2699317088 0  62638.60576621335 179274.2426304358 0  68212.99295126265 187459.3754999009 0  75814.40529046141 193858.3467082375 0  84761.00503602097 198204.6515231062 0  94061.92665129391 201734.182040823 0  103676.4565927747 204325.1412130333 0  112974.540309108 207830.3235759034 0  118972.4630267572 215380.3369922852 0  120264.8170507578 225241.997356352 0  123444.1757132735 234565.2722630062 0  129527.245366261 242435.1534677757 0  250000 250000 -9999.999999997535  250000 250000 -19999.99999997662  250000 250000 -29999.9999999377  250000 250000 -39999.99999995799  250000 250000 -49999.999999979  250000 240000.0000000016 -60000  250000 230000.0000000032 -60000  250000 220000.0000000048 -60000  250000 210000.0000000064 -60000  250000 200000.0000000079 -60000  250000 190000.0000000095 -60000  250000 180000.0000000111 -60000  250000 170000.0000000127 -60000  250000 160000.0000000143 -60000  250000 150000.0000000159 -60000  250000 140000.0000000175 -60000  250000 130000.0000000191 -60000  250000 119999.9999999916 -60000  250000 109999.9999999825 -60000  250000 99999.99999998408 -60000  250000 89999.99999998568 -60000  250000 79999.99999998725 -60000  250000 69999.99999998885 -60000  250000 59999.99999999045 -60000  250000 49999.99999999205 -60000  250000 39999.99999999366 -60000  250000 29999.99999999526 -60000  250000 19999.9999999968 -60000  250000 9999.999999998399 -60000  250000 0 -49999.99999997466  250000 0 -39999.99999999574  250000 0 -30000.00000007532  250000 0 -20000.00000005069  250000 0 -10000.00000002534  240416.6666666667 0 -60000  230833.3333333333 0 -60000  221250 0 -60000  211666.6666666667 0 -60000  202083.3333333333 0 -60000  192500 0 -60000  182916.6666666667 0 -60000  173333.3333333333 0 -60000  163750 0 -60000  154166.6666666667 0 -60000  144583.3333333333 0 -60000  240416.6666666667 250000 -60000  230833.3333333333 250000 -60000  221250 250000 -60000  211666.6666666667 250000 -60000  202083.3333333333 250000 -60000  192500 250000 -60000  182916.6666666667 250000 -60000  173333.3333333333 250000 -60000  163750 250000 -60000  154166.6666666667 250000 -60000  144583.3333333333 250000 -60000  135000 240000.0000000016 -60000  135000 230000.0000000032 -60000  135000 220000.0000000048 -60000  135000 210000.0000000064 -60000  135000 200000.0000000079 -60000  135000 190000.0000000095 -60000  135000 180000.0000000111 -60000  135000 170000.0000000127 -60000  135000 160000.0000000143 -60000  135000 150000.0000000159 -60000  135000 140000.0000000175 -60000  135000 130000.0000000191 -60000  135000 119999.9999999916 -60000  135000 109999.9999999825 -60000  135000 99999.99999998408 -60000  135000 89999.99999998568 -60000  135000 79999.99999998725 -60000  135000 69999.99999998885 -60000  135000 59999.99999999045 -60000  135000 49999.99999999205 -60000  135000 39999.99999999366 -60000  135000 29999.99999999526 -60000  135000 19999.9999999968 -60000  135000 9999.999999998399 -60000  9760.266420117418 0 -5952.053284023483  19520.53309387125 0 -7904.10661877425  29307.1102415074 0 -9718.421407375839  39104.7333719938 0 -11473.30036109216  48875.83924532436 0 -13369.19882213981  58571.87012930932 0 -15613.67939664691  68124.11986543986 0 -18408.53002372226  77527.76485865096 0 -21667.33907869995  86719.09466349281 0 -25482.98540480309  95631.92793098884 0 -29908.59492259344  104180.5528547143 0 -35003.66989024555  112449.6580983703 0 -40542.62450796275  120509.52686276 0 -46382.42388125008  127994.6878848568 0 -52930.54997290741  9760.266420117418 250000 -5952.053284023483  19520.53309387125 249999.9999999999 -7904.10661877425  29307.1102415074 250000 -9718.421407375839  39104.7333719938 250000 -11473.30036109216  48875.83924532436 250000 -13369.19882213981  58571.87012930932 250000 -15613.67939664691  68124.11986543986 250000 -18408.53002372226  77527.76485865096 250000 -21667.33907869995  86719.09466349281 250000 -25482.98540480309  95631.92793098884 250000 -29908.59492259344  104180.5528547143 250000 -35003.66989024555  112449.6580983703 250000 -40542.62450796275  120509.52686276 250000 -46382.42388125008  127994.6878848568 250000 -52930.54997290741  145499.999999982 250000 0  154999.999999964 250000 0  164499.999999946 250000 0  173999.999999928 250000 0  183499.99999991 250000 0  192999.9999998977 250000 0  202500.00000009 250000 0  212000.000000072 250000 0  221500.000000054 250000 0  231000.000000036 250000 0  240500.000000018 250000 0  240000.0000001065 0 0  230000.0000002129 0 0  220000.0000003194 0 0  210000.0000004258 0 0  200000.0000005323 0 0  190000.0000006387 0 0  180000.0000006325 0 0  170000.0000004744 0 0  160000.0000003162 0 0  150000.0000001582 0 0  81541.63335874674 35498.13281562441 -1158.202651726381  46004.68664141578 194254.3443995834 -2060.726341037222  32687.99629987251 175105.6839569158 -2219.415882311186  36663.59507600099 63079.34846719183 -2167.093431592842  52002.09530018299 134928.3526843132 -266.7613614382204  59599.13772899003 109177.3480854863 -691.4602217251189  13806.90843888927 84795.87142461444 -3288.608480833754  42042.1003123136 65482.76889364541 -1784.344992951069  85917.78356508871 211210.3489857896 -1084.187284676976  26344.15959288631 140617.4121347481 -2112.437398247788  49350.86723141051 36336.78604214006 -2272.704599832591  21702.40331646254 119880.0690882354 -2466.437976166102  57313.56589490068 220733.4025395545 -2090.49117424689  28866.73893404105 218351.493928639 -3037.311471166797  64300.33793173476 48969.94193502321 -1793.328299662734  52482.25996720623 28090.02703717845 -2196.191483315934  63095.9704402233 54899.2587271606 -1627.600015239288
[...]
<PointData  Vectors="f_6930"> 
<DataArray  type="Float64"  Name="f_6930"  NumberOfComponents="3" format="ascii">-6.0202806492427506e-02 -1.3441600189070705e-02 2.6131542426000035e-02  9.3159366818396077e-03 -4.4761701632253396e-02 -4.4492716555392504e-02  -1.5047065196581730e-03 -1.7031064447778164e-02 1.3271049870001686e-01  -5.1619153356124457e-02 -7.3221095184024892e-02 1.7105260236369910e-01  -6.9940346941527315e-02 2.7932767185287369e-02 -2.8366656868239571e-02  -2.3768200669740724e-02 1.4393029922793172e-02 2.4180562002206259e-02  -7.5073381117957633e-03 5.0960613619982519e-02 1.1889127816371825e-01  -6.7071709892642167e-03 -2.6545539043802652e-02 1.8674084263937629e-01  -2.1957357074158429e-01 7.2865510842028053e-02 1.4518119387511516e-01  -1.4089723622408803e-01 -1.9368553040487541e-02 1.3366726544207083e-02  -2.8882967515820784e-01 5.8632082884586149e-02 1.8367911115131086e-01  -2.7855220880393322e-01 9.1354119804035305e-03 1.0688970879047878e-01  -5.6850598893735338e-01 1.2953086694538216e-01 2.9876260894327472e-01  -7.2068984896064725e-01 9.6688316902681898e-02 4.6687425378852881e-01  -2.8008156342876472e-01 -7.4472083640162653e-03 1.0586707946151999e-01  -9.6966376992107040e-01 -5.0180088367049756e-02 5.9822037606176992e-01  -1.2585816903252511e-01 -1.2193046028380515e-01 -6.0734942639736143e-03  -1.1196893749300649e+00 -1.7387972020893888e-01 7.3665391300531458e-01  -8.4321480324716591e-02 -4.3100313608084063e-02 4.0188616443688353e-02  -5.0739625556261025e-01 -1.8873280046681629e-01 6.5440664053319317e-02  -1.4522884319452672e-01 -6.9994396439604034e-02 4.8286864798906523e-02  -9.0115655000532058e-01 -1.9201530960438862e-01 3.7548703430615116e-01  -1.2149950664289795e+00 -3.2302907844981404e-01 8.8503148565512713e-01  -1.2565720516638703e+00 -4.2537511507089243e-01 9.1435986529204871e-01  -1.0094655891419320e+00 -2.8747645159720414e-01 1.7484722267100006e-01  -3.1897457687856068e-01 -9.2869960748279516e-03 -5.9765034509202553e-03  -5.1788037609068016e-01 -1.8821750698127218e-01 -6.0664431036166228e-02  -9.7681625326591037e-01 -2.7685366494364777e-01 2.1476527848481106e-01  -8.0655180622527156e-01 -4.6698283012957992e-01 6.7946421312513872e-01  -8.7985686019495957e-01 -3.1722114813757907e-01 3.7336458583242632e-01  -8.6172833210558464e-01 -2.2543003878410928e-01 -8.4258841893767700e-02  -8.4316005853453813e-01 -1.7361818397783360e-01 2.3515636357833818e-03  -4.2501994141895655e-01 -9.8668309210210234e-02 5.9093961950339099e-02  -6.8161410343048767e-01 -9.0791147665645527e-02 -4.7240720850105056e-02  -3.2047856671362357e-01 -2.8105327027614768e-01 2.5448858016068143e-01  -3.5721805518718952e-01 -3.0358754504385127e-01 2.4500268288301369e-01  -4.8683339909208939e-01 -1.8101500394110814e-01 1.7167889740774447e-01  -5.1955240821911663e-01 -6.4587332422521668e-02 9.2204936125825573e-02  -2.8168283891596158e-01 -1.1534628583436034e-01 6.4675657803212855e-02  -4.3200516968803909e-01 -6.8320164134289485e-02 7.5161974154684397e-02  -3.3197689800651986e-01 -2.9573228639188757e-02 4.0484992155873339e-02  -1.6834771189928299e-01 -1.5409412630260799e-02 4.1149224541031232e-02  -2.8544452965155909e-01 3.9158866678056986e-02 1.0951052762908159e-01  -1.1259506361415031e-01 -6.6947616867620796e-02 1.7873471053767495e-01  -2.2168044094322895e-03 -7.5252037832033075e-02 8.3227196413185781e-02  -6.4708860089005754e-02 -5.8765695103792148e-02 2.0028872612612467e-02  -1.1562397461641298e-01 -1.3831060350868042e-02 3.0083666900264330e-02  5.0323651004989122e-04 -2.6465378245954688e-02 -2.1132836602456264e-02  1.3566074230078631e-02 1.1237272689881384e-02 1.4260318601864304e-02  -6.9304704147208809e-02 -3.6086263840589800e-02 3.1426432228721783e-03  -4.5445278751473500e-02 3.3221424519640677e-02 1.4923352463322397e-02  1.8757024262007198e-02 1.8241730496056747e-03 -5.2565440968003932e-02  -3.4162938673980042e-02 5.1942995624419161e-02 2.2743398931000212e-02  -5.7703347069599113e-02 2.5886480387628311e-02 -7.0189767920537036e-02  -5.4048289600503938e-02 5.3575615706640170e-02 2.0089950101366993e-02  3.3402598875598519e-03 6.9061566646290533e-03 3.3858043753991478e-02  4.3636484365737402e-02 -3.2314142721674322e-02 4.3469699464330526e-03  5.6159084158182264e-03 -1.3006144620063772e-02 4.7459662516364021e-02  -1.7236738578917200e-02 -3.4304146837146006e-02 2.6428548576381980e-02  -4.0201064666994052e-02 -7.2966523544097661e-02 1.7826155189173309e-02  3.6636810167319407e-02 -4.8796474241001052e-02 1.9731446923521143e-01  2.3456175049281811e-02 -8.3623883902861060e-02 2.2633007179488077e-01  -4.1018920800155040e-03 3.7566327947937683e-03 2.8477419767525530e-01  -4.9432053760001121e-02 -3.0675523693553964e-02 2.1621345139534920e-01  -3.7272048642867192e-02 -1.2751027430587836e-01 2.2563296480213368e-01  1.7790823329974031e-02 -2.9157244140754282e-04 2.1032238946028842e-01  -9.2478769284370429e-03 2.4100367607292349e-02 2.6629858394268896e-01  7.0502589941576134e-04 -9.8988903501054937e-02 2.5520931591633522e-01  -3.8981399403310621e-02 -3.4171222373446004e-02 1.8782069484518193e-01  1.1525147343905877e-02 -4.5983113844710259e-02 2.4181348923573154e-01  -1.8079209981039740e-03 -3.2792048897034576e-02 2.1513014980226980e-01  -7.8050526850912180e-03 6.1500388671003256e-02 2.3995614130115239e-01  -1.4237938692542676e-02 -3.3520503760937070e-03 2.2720226224499770e-01  5.4515634399131839e-02 -9.0726416850120551e-03 2.0088568554856462e-01  7.3518930168750593e-02 4.2038108572736266e-02 2.8323272068966032e-01  5.0990261428208963e-02 -4.0035101402943904e-02 1.9762615579878856e-01  1.2541757624684534e-02 -4.4731056656539103e-03 1.8418046204460722e-01  3.4113788208325127e-02 -4.6706174584798137e-02 1.6104555073849949e-01  -7.1760572596628172e-02 2.9078882885308396e-02 1.9475191457201699e-01  -8.5591659811364313e-03 -4.8317513920325003e-02 1.6723885845046094e-01  -1.6244966846738592e-02 -7.3809235805770554e-03 1.6349960206779990e-01  4.2783903086300534e-02 -3.8441061338596240e-02 1.5258538953343387e-01  2.1063521067707560e-02 8.2434389513203789e-04 9.7508867104647401e-02  2.3148590332367588e-02 2.5386825981947594e-02 9.2897095307195768e-02  -5.6663575966263806e-03 -5.4356698652483625e-02 5.5940201390307275e-02  -2.3451268727247329e-02 -6.9308128045748207e-02 -7.2582856718175492e-02  3.5763642075613014e-02 2.3145241959166320e-03 2.1784030329370978e-02  -5.7744755219710751e-02 4.0782807946312075e-02 9.6927020102916504e-03  1.0217036571320103e-02 6.0788234817073204e-03 -8.0736119654326761e-03  -1.1925218764257926e-02 -5.4618926462990727e-05 -1.2002132104070974e-02  -1.9268519121108860e-02 -4.4362773001683696e-02 5.7502174092555662e-03  1.8844280798472560e-04 2.3176481002705432e-02 6.5581623880143866e-02  -2.7428601696844801e-02 -6.0192053789461263e-02 -4.0675267222811187e-02  -1.0580014911809607e-02 -3.7507345459564904e-02 3.8387542928238982e-02  8.1214524552609118e-03 -6.5164937473090268e-02 -5.5648770334326665e-03  1.2360400824343492e-03 -9.2591926703691832e-02 8.8790577998997894e-02  -1.0649371512759400e-02 7.3599483689021439e-03 -1.8032592702733434e-02  -1.3312344760537968e-02 -3.0219816437631348e-02 -5.5106499696285418e-03  7.3270531791503640e-02 2.7386911995911638e-02 3.7373641731879764e-02  1.8892850382088945e-03 3.0387285336025197e-02 -1.1744385866651174e-02  1.0767525036384411e-02 -4.1492943265273079e-02 4.6404999961555372e-02  -3.0334467945596282e-02 -6.4666145733954863e-02 -1.3646549289218808e-02  6.2727908365096632e-02 -2.8257689233924615e-02 -3.1835487691355517e-02  -8.1315304415262891e-03 -1.7055650137817735e-02 3.3477262067513162e-02  5.6855416121596243e-04 -2.7785728766934404e-02 -3.8868302572809599e-02  -1.2175480654902487e-01 -1.2079126294233978e-02 8.8937642749971155e-03  -1.9293206437522730e-02 4.6143024138612463e-03 8.4317807735528588e-03  -2.9060556282231843e-02 7.1638928843792606e-03 2.3277070639209484e-03  -2.9494886330367873e-02 3.0487646063333356e-02 3.5837741439500005e-02  -1.8708473635288641e-02 5.4160803521749359e-02 4.5486452388213937e-02  2.2431137201590254e-03 -6.2887619591062973e-03 -3.2431380349938914e-02  1.5887056334354433e-02 -3.0200822584264618e-02 -7.9442866775746745e-02  1.4235088936758025e-02 2.0307786262223574e-02 5.6522087351212969e-03  5.7146983570930232e-02 2.0358934430000367e-02 1.1663217751477287e-02  8.5220226456439181e-04 -4.1489094390697853e-02 6.9791354224057175e-02  4.4534919590891585e-02 -4.3655605796553490e-02 -1.5476353703131733e-02  2.3996739622591339e-02 1.3217342440568172e-02 -3.7189593586000075e-02  -5.1268258790412774e-02 3.3474198607440471e-03 -1.9375290432585228e-02  -1.2140420454804022e-02 1.5332071628016853e-03 -1.1815439162043249e-02  -7.6385128515654805e-03 -4.7573944209575066e-02 -8.2466945094765102e-03  -2.7111615196896137e-02 -3.0175443448295428e-02 2.4287089113420358e-02  -3.5198742116459951e-02 8.0532376815727183e-02 -5.1210299133013122e-04  5.0240819579729160e-03 1.8172661619101423e-02 3.6766557945971744e-02  -9.5821530198447497e-02 8.1233126359883598e-03 -6.0114306578305920e-03  1.2816375077651147e-02 -2.2470932892099144e-02 -7.7104741397684765e-02  -2.6502143374778804e-02 1.6387612597075357e-02 1.1324297286860335e-02  -4.8199257502681531e-02 -1.6653550001170182e-02 -1.6737171916046435e-02  -9.8495498475355520e-02 -9.5298726902875892e-03 5.0855289423958866e-02  -5.2384817241518722e-02 -4.9643826727103262e-02 4.0917415631244569e-02  -3.1924467306181592e-02 -1.0926400827414610e-01 6.2069640219671124e-02  -4.8656821972586868e-02 -8.5838155429337482e-02 2.6279505691248567e-02  -1.0494017321656138e-01 -1.8281862635481322e-01 2.2429393693792269e-02  -1.1919650049527505e-01 -1.7925994691312364e-01 5.8765687639190253e-02  -3.4991519378172120e-01 -3.3755835358196257e-01 3.0976808625918317e-01  -5.2941368482985274e-01 -4.2359660734715060e-01 3.9874669298025478e-01  -8.6356052252569449e-01 -4.7885266220637102e-01 6.6333629776309078e-01  -1.1492388400047711e+00 -4.7441192407661581e-01 8.7158096863763967e-01  -1.2462824692142063e+00 -3.4857215578780421e-01 8.3623856679933251e-01  -9.8839878630037403e-01 -1.6487993842425125e-01 7.1469942447200507e-01  -8.3555431935333424e-01 -5.6573987178616572e-02 4.5022258131308712e-01  -6.8035092117640805e-01 1.6957466361476367e-02 3.6809905827686806e-01  -4.4930082338990418e-01 1.4718182677764002e-01 2.6646158412462756e-01  -3.0052653699048948e-01 5.9130367505740813e-02 8.6378076993844602e-02  -1.7268480991404556e-01 1.1164835576618487e-01 5.2616549827229978e-02  -1.5158498206346549e-01 8.9935866680160417e-02 -2.4934686544095912e-03  -8.3006138994545356e-02 -3.6424883535679575e-02 4.9938417904627490e-02  -4.6736303703372083e-02 -7.7376399470173357e-02 3.3374086057760766e-02  -9.2552727616028521e-02 -8.1965283907583925e-03 -3.1572398026448241e-02  -8.6992085939409616e-02 -9.8902452891090745e-02 -1.5934975616099648e-02  -1.0100663116457964e-01 -8.4339547583040408e-02 2.2713561601241522e-02  -6.8847925658189910e-02 2.4719977347189143e-03 -1.1380147453200824e-02  -1.0546858443969961e-01 -2.9717170418988425e-02 9.8953408449431804e-04  -7.3453950730538661e-02 1.7841436082194354e-02 -2.6627399010967362e-03  -4.9998423989644193e-02 -1.9469773702076351e-02 6.0492650796648909e-02  -7.9911898625741017e-03 -8.3501960750550303e-02 2.0255413352201868e-01  -2.6178751439730644e-02 -8.2944909909169987e-02 2.7048744825253762e-01  -1.5990703799043391e-03 -7.4319020678923514e-02 2.6243879068563214e-01  -3.5351792864563310e-02 -1.1636357248341794e-01 2.0593899744608915e-01  -2.0417193500075301e-02 -8.2121401339086658e-02 2.2095540840387953e-01  2.3938349498321149e-02 -1.7517698681516057e-02 3.0061547374290998e-01  1.0491510673073974e-02 -7.6066463858531247e-02 2.0327163915905072e-01  9.4929598318216173e-03 -4.7336720609615496e-03 1.9143216720449177e-01  1.8665400090780226e-02 -6.1479455032844924e-02 3.0352787824337740e-01  -7.1028426412072049e-02 -3.0261913283976795e-02 2.0701657044552763e-01  -7.5841555621821391e-02 -7.5893075124981682e-02 2.5148048502998777e-01  -1.9478669426954089e-03 2.6161979316153619e-03 2.6628648029081325e-01  -3.3185107779434092e-02 -1.0886159494481303e-02 2.2068889296663496e-01  1.1838130172822125e-02 -5.0911236431346082e-02 2.8777163735127154e-01  4.4456862264455176e-03 -5.1559410651369493e-02 2.5464937425652906e-01  7.2682288635455752e-03 -1.6543798704743554e-02 2.4759795755842773e-01  3.5469831908388383e-03 -3.1586516311412668e-02 2.7414086025558387e-01  -2.5927380497373989e-03 -1.9004024973384614e-02 2.6971158812321416e-01  1.5283315682233999e-02 1.9258620030410026e-02 2.7090788704349289e-01  1.6391298693705900e-02 1.7754751799805384e-02 2.2094168534953040e-01  3.3273411783829795e-02 7.6358946258474614e-02 2.3011639196099748e-01  1.4111279189952549e-02 -1.6315299942588346e-03 1.8748696869574197e-01  -2.4928012127971768e-02 3.5396831911074185e-02 2.2750987717101775e-01  8.1850379237936813e-03 6.3263386392814452e-02 1.5259716695902178e-01  1.4016407092738692e-02 5.2144332841006780e-03 2.2525676488092358e-01  -4.9889952971687995e-02 4.7255839818543907e-02 1.6766079877804507e-01  -4.8823097092501884e-02 1.7698364883655955e-02 2.0239475019893580e-01  -1.3370921640774275e-02 5.6819530674288958e-02 1.3031925085579166e-01  -4.1151521411322368e-02 2.6775083506741036e-02 1.0644800327848530e-01  -2.6278545564179193e-03 1.9027113562829264e-02 1.2774627978675387e-01  4.8425158495047343e-03 -3.3305690694131890e-03 1.4460098077882252e-01  1.3534203482947825e-03 6.0980907298432842e-02 1.7852957694570071e-01  -8.4716103610731522e-02 3.5562993974723185e-02 1.7128594985271428e-01  -2.8777646589409685e-02 -1.3839951421551457e-02 1.1057777283003026e-01  1.4785870348978354e-03 7.7584305870107090e-02 1.4768108053264367e-01  4.2112537422436397e-02 2.1966282587855903e-02 1.2479862345474375e-01  -4.3368746301306500e-03 6.3378051862218246e-02 1.2458040482736102e-01  -2.2483208218509857e-02 9.0933606142001508e-03 9.8165624591319847e-02  4.3796193628298882e-02 1.0447381011943757e-03 1.3348424101735171e-01  2.4796378617183167e-02 4.1523205687495048e-02 9.3312804942698682e-02  1.2796915250405425e-02 7.0949724231475192e-02 1.0839263494475955e-01  2.5944883572769695e-02 3.3585709389046009e-02 3.3916799164533065e-02  1.7685832204160659e-02 -3.2656090226719850e-02 1.2792003637785349e-02  2.8966781689477444e-04 1.6198154735773077e-02 2.5723824770095279e-02  1.4577361616918505e-02 -2.2109527324736599e-02 3.6290554133303517e-02  1.9186024658614083e-02 -3.0761396749830409e-02 2.4525886220106605e-01  -3.4948940536026138e-02 -1.0790638004254657e-02 1.6449562141527946e-01  2.1814664752200664e-02 -4.8309664942798709e-02 2.3642867665103950e-01  -1.0263344068360606e-02 -6.8071592481808274e-02 2.1346269068066281e-01  1.7928830833442128e-02 -3.6253119291176687e-02 1.8975043604402389e-01  5.8551868794867387e-02 -3.3953469973477035e-02 2.0416396408544116e-01  9.1176569914906865e-03 -5.4910082409296471e-02 1.3608317421767172e-01  1.4740416976892823e-02 -1.4551112133116471e-02 1.7789321939186584e-01  8.5389678084520221e-03 -5.6067013462939901e-02 3.3544342066054889e-02  -1.4908362984384447e-02 -7.2506922943872572e-03 7.5939383822889908e-02  5.2949223843935495e-02 1.5606435220446782e-02 5.6987746780741491e-03  3.2989727710825180e-02 6.3337385901947027e-02 -4.6683084682958800e-02  -1.2163259084112076e-02 1.4836037257030881e-02 5.3572816370534026e-04  -8.2087451240831458e-02 3.9697226149420672e-02 1.6768844340654985e-02  -6.5020644421028249e-03 -1.4735829229738418e-02 3.7920021798186328e-02  1.2927373257979581e-02 -9.5839962482569801e-03 3.2116924418776498e-02  -3.6404543169054830e-02 -2.7137833280936812e-02 1.1175653718679159e-02  -3.6821785113607515e-02 -3.4742172024116662e-02 -6.0182262723525726e-03  3.2518462976693897e-02 -1.3188328542656013e-02 6.0843328991134163e-02  1.7615054154561671e-02 -5.3191380747761460e-02 -1.3016539257558859e-02  1.9224552142828966e-02 -2.4851861444918383e-02 -2.4772833487484661e-02  -1.5391957573845205e-02 2.0137930457993905e-02 1.8592607401741016e-02  -3.7606262002015438e-02 5.8295589094163013e-03 2.0886142328842571e-02  3.8961721241614462e-02 -2.4290913028796924e-02 -1.2414701812971190e-03  -9.2829263044058460e-02 2.8286395215724063e-02 4.5473418891820973e-02  1.9411551524830668e-02 3.0662187379503499e-02 8.9058324596146057e-03  3.5231476725517950e-03 -5.7289616267166672e-02 4.3456131249793948e-03  -2.4158393361797287e-02 -7.0558122342685353e-02 4.6585149745326286e-02  -4.1741212945420748e-02 -2.0628551659341219e-02 3.5106552082299500e-02  4.1176951719882528e-03 -1.8500106946047742e-02 -5.4627756044935451e-03  3.3718131798746748e-02 6.8702480134429202e-03 -1.7920211791116036e-02  -1.4850436942684973e-02 5.6006833512213951e-02 8.6225136077629244e-02  -7.1570980419646171e-02 2.4006790404512389e-02 -4.4093569119653273e-02  3.0848284351079624e-02 -1.8404236565305772e-02 -1.6517978367798624e-02  2.6746532173292696e-02 -4.5579349158288332e-02 -7.7678096066194122e-02  -1.2241529435413012e-02 2.1990936135097327e-03 -3.3085147633981467e-02  1.9188585170815054e-02 -4.2262370759160083e-02 -8.7790384937947406e-03  1.0143165716488095e-02 -2.8469827445814774e-02 1.0639171247624504e-02  -1.4598382957440566e-02 1.6634773846432666e-02 2.2269674356105888e-02  -1.6869993139024915e-03 2.5530860796649936e-02 8.7690510225852758e-04  9.8248064125723601e-03 -4.4150146099603521e-02 5.4106572199000842e-02  8.5365839375091783e-03 1.3765989270205605e-02 -1.6742288130857377e-03  1.4447207071999679e-02 6.8132937146488850e-03 1.8755817957594338e-02  5.3809643410289959e-02 -1.0095284429924554e-02 4.6390717966061451e-02  7.8586863856815778e-02 2.6970964030615933e-02 6.5832514995032398e-02  4.1304325293099776e-02 -1.0885364433525269e-02 -2.7884907869497699e-03  -1.8841740491825704e-02 -5.8047268884521379e-02 1.6610592388566431e-04  -8.7676772262646335e-03 -1.8957955588689641e-02 5.3873453663160183e-03  3.2306810897721590e-02 -3.4127538894926007e-02 -9.2215525478563071e-02  1.9343298685636102e-02 4.1806486681971823e-02 4.1821192222787330e-02  8.2728771090068570e-02 2.6147446882459985e-02 -8.6188723865861100e-03  -5.1179024133732237e-02 4.2664674195480305e-02 6.6910706707712889e-02  1.1972467996642941e-02 6.6224711725493971e-03 2.2929824739354756e-02  -4.1717201246975255e-02 7.8987461316566768e-03 6.1337192670522962e-03  1.9728488951618738e-02 -2.0427606524300007e-02 4.1236986887645023e-02  4.4243518234632483e-02 -2.1513437216018515e-02 -7.8105964987247575e-02  -1.8011620090296710e-02 1.4625181683744277e-02 2.6055781268261181e-03  3.1538528074617746e-02 1.6721434175599181e-02 -4.6933709120164802e-03  -3.4160892146561601e-02 -7.3975445586031939e-03 7.8757738227955964e-03  -7.9006100201148552e-02 8.4265748165353913e-02 -1.1924302308913838e-02  -4.4535411744324564e-02 -4.9417432752477550e-02 6.7279052746888231e-03  1.5788443011784214e-03 -1.4019928248329304e-02 -4.3115847932011959e-03  3.3725403611667523e-02 -1.9139881443094781e-02 5.4960341459030351e-02  -1.1796288441394152e-01 -3.6583541076310913e-02 5.8787521641708397e-02  -1.5941546313419880e-01 -7.9387975664411858e-02 4.8081288243199960e-02  -7.9805413700823224e-02 -4.8522169294830338e-02 1.0323909655271443e-01  -1.2772840662495799e-01 -4.2884657452864156e-02 1.5841889513517873e-01  -2.9675454221041078e-02 -6.7613844631662159e-03 1.5592633158068553e-01  -1.6879751019067449e-01 -5.5580276725284067e-02 1.5248115028917819e-01  -4.8784031803336222e-02 -6.2080619398361001e-02 1.9689072117070372e-01  -3.9052020165331408e-02 -8.2510648897434563e-02 1.8439351923057257e-01  -3.9420835730314970e-02 -9.9942829816319967e-02 1.8123183362074463e-01  -5.3789642746033865e-02 -6.1793194439119375e-02 3.0497584234393921e-01  -7.3771448466707024e-02 -3.7665542907566490e-02 1.9137989031592864e-01  1.9196455856299033e-03 -3.3521001557711927e-02 9.8935565707042220e-02  -1.8931086918299842e-02 4.1575472716335590e-02 1.5684206752361618e-01  -4.3510073085291520e-02 -4.8252516575930257e-02 1.3357470009938494e-01  -3.6261728554375046e-02 -3.8200017583872863e-02 1.0917506484822788e-01  -4.9085882668407091e-02 -3.7719048579815437e-02 1.2479277721293755e-01  2.79327313225802