<?xml version="1.0"?>
<VTKFile type="UnstructuredGrid"  version="0.1"  >
<UnstructuredGrid>
<Piece  NumberOfPoints="3594" NumberOfCells="14547">
<Points>
<DataArray  type="Float64"  NumberOfComponents="3"  format="ascii">0 0 -4000  0 250000 -4000  250000 0 0  250000 250000 0  135000 0 -60000  135000 250000 -60000  250000 0 -60000  250000 250000 -60000  65308.5 173604.8 0  78441.2 185529.2 0  65707.89999999999 168017.6 0  73555.60000000001 174095.8 0  61257.8 157386.9 0  65291.6 154352.5 0  82112.3 172814.3 0  58804.1 138685.6 0  106822.8 190893.8 0  60152.4 136426.2 0  144960.9 230041.9 0  88660.10000000001 163931.9 0  134829.2 208246.3 0  82409 149993.8 0  65214.4 127836 0  67249.7 122418.9 0  91916.7 141284.3 0  125498.1 99698.5 0  111195.9 162013.4 0  92905.39999999999 131283.2 0  77176.5 109747.4 0  90809.3 124059.5 0  107806.1 141615.9 0  104439.5 126126.3 0  137051.8 160541 0  118095 132800.4 0  82238.39999999999 90851.5 0  84123.2 92291 0  98197.5 105309.4 0  105163 104713.8 0  154799.8 153672.9 0  133655.9 122823.1 0  111467 94557.3 0  106995.1 77971.8 0  149450.7 123239.8 0  192061 157764 0  133903.2 45232 0  140000 0 0  136000 250000 0  9714.285714284615 250000 -3714.285714285747  19428.57142857481 250000 -3428.571428571329  29142.85714285597 250000 -3142.857142857177  38857.14285713715 250000 -2857.142857143025  48571.42857141832 250000 -2571.428571428873  58285.71428569948 250000 -2285.714285714721  67999.99999998066 250000 -2000.000000000569  77714.28571426184 250000 -1714.285714286416  87428.571428543 250000 -1428.571428572265  97142.85714282417 250000 -1142.857142858113  106857.1428571053 250000 -857.1428571439606  116571.4285713865 250000 -571.4285714298085  126285.7142856677 250000 -285.7142857156564  250000 240000.0000000016 0  250000 230000.0000000032 0  250000 220000.0000000048 0  250000 210000.0000000064 0  250000 200000.0000000079 0  250000 190000.0000000095 0  250000 180000.0000000111 0  250000 170000.0000000127 0  250000 160000.0000000143 0  250000 150000.0000000159 0  250000 140000.0000000175 0  250000 130000.0000000191 0  250000 119999.9999999916 0  250000 109999.9999999825 0  250000 99999.99999998408 0  250000 89999.99999998568 0  250000 79999.99999998725 0  250000 69999.99999998885 0  250000 59999.99999999045 0  250000 49999.99999999205 0  250000 39999.99999999366 0  250000 29999.99999999526 0  250000 19999.9999999968 0  250000 9999.999999998399 0  130000 0 -285.714285714285  120000 0 -571.4285714285701  110000.0000000001 0 -857.1428571428546  100000.0000000001 0 -1142.857142857139  90000.00000000017 0 -1428.571428571424  80000.0000000002 0 -1714.285714285709  70000.00000000025 0 -1999.999999999993  60000.00000000026 0 -2285.714285714278  50000.00000000023 0 -2571.428571428565  40000.00000000019 0 -2857.142857142852  30000.00000000015 0 -3142.857142857139  20000.00000000009 0 -3428.571428571426  10000.00000000004 0 -3714.285714285713  0 9999.999999998096 -4000  0 19999.99999999726 -4000  0 29999.99999999545 -4000  0 39999.99999999275 -4000  0 49999.9999999912 -4000  0 59999.99999998965 -4000  0 69999.99999998808 -4000  0 79999.99999998655 -4000  0 89999.99999998501 -4000  0 99999.99999998347 -4000  0 109999.9999999819 -4000  0 119999.9999999804 -4000  0 130000.0000000079 -4000  0 140000.000000017 -4000  0 150000.0000000155 -4000  0 160000.000000014 -4000  0 170000.0000000124 -4000  0 180000.0000000109 -4000  0 190000.0000000093 -4000  0 200000.0000000078 -4000  0 210000.0000000062 -4000  0 220000.0000000047 -4000  0 230000.0000000031 -4000  0 240000.0000000016 -4000  134615.5786831678 8376.221222376078 0  129135.8381374389 16690.61556165003 0  123693.3119097638 25029.34528065769 0  118458.7304757098 33499.41630675747 0  114183.5561631282 42453.40693221996 0  117152.9012549134 51656.5775220433 0  109640.5189223821 56772.26946740811 0  99783.22349336625 58163.79074226946 0  89906.64048415456 59427.041153887 0  80231.83368741472 61714.93090982783 0  73457.07599492084 68333.04562829909 0  74666.1562536891 78126.62096439983 0  77477.57171300898 87678.05180735435 0  78461.83411646895 97534.63399308435 0  75049.04009726809 106816.2708870931 0  69538.50964765088 115103.6313494232 0  63598.75337311435 123095.8011052612 0  58118.08704720287 131402.6075281692 0  54672.56885839759 140685.5429709587 0  54507.01644649181 150612.6283068675 0  56360.01451579022 160386.8607035369 0  59277.85033353963 169905.2699317088 0  62638.60576621335 179274.2426304358 0  68212.99295126265 187459.3754999009 0  75814.40529046141 193858.3467082375 0  84761.00503602097 198204.6515231062 0  94061.92665129391 201734.182040823 0  103676.4565927747 204325.1412130333 0  112974.540309108 207830.3235759034 0  118972.4630267572 215380.3369922852 0  120264.8170507578 225241.997356352 0  123444.1757132735 234565.2722630062 0  129527.245366261 242435.1534677757 0  250000 250000 -9999.999999997535  250000 250000 -19999.99999997662  250000 250000 -29999.9999999377  250000 250000 -39999.99999995799  250000 250000 -49999.999999979  250000 240000.0000000016 -60000  250000 230000.0000000032 -60000  250000 220000.0000000048 -60000  250000 210000.0000000064 -60000  250000 200000.0000000079 -60000  250000 190000.0000000095 -60000  250000 180000.0000000111 -60000  250000 170000.0000000127 -60000  250000 160000.0000000143 -60000  250000 150000.0000000159 -60000  250000 140000.0000000175 -60000  250000 130000.0000000191 -60000  250000 119999.9999999916 -60000  250000 109999.9999999825 -60000  250000 99999.99999998408 -60000  250000 89999.99999998568 -60000  250000 79999.99999998725 -60000  250000 69999.99999998885 -60000  250000 59999.99999999045 -60000  250000 49999.99999999205 -60000  250000 39999.99999999366 -60000  250000 29999.99999999526 -60000  250000 19999.9999999968 -60000  250000 9999.999999998399 -60000  250000 0 -49999.99999997466  250000 0 -39999.99999999574  250000 0 -30000.00000007532  250000 0 -20000.00000005069  250000 0 -10000.00000002534  240416.6666666667 0 -60000  230833.3333333333 0 -60000  221250 0 -60000  211666.6666666667 0 -60000  202083.3333333333 0 -60000  192500 0 -60000  182916.6666666667 0 -60000  173333.3333333333 0 -60000  163750 0 -60000  154166.6666666667 0 -60000  144583.3333333333 0 -60000  240416.6666666667 250000 -60000  230833.3333333333 250000 -60000  221250 250000 -60000  211666.6666666667 250000 -60000  202083.3333333333 250000 -60000  192500 250000 -60000  182916.6666666667 250000 -60000  173333.3333333333 250000 -60000  163750 250000 -60000  154166.6666666667 250000 -60000  144583.3333333333 250000 -60000  135000 240000.0000000016 -60000  135000 230000.0000000032 -60000  135000 220000.0000000048 -60000  135000 210000.0000000064 -60000  135000 200000.0000000079 -60000  135000 190000.0000000095 -60000  135000 180000.0000000111 -60000  135000 170000.0000000127 -60000  135000 160000.0000000143 -60000  135000 150000.0000000159 -60000  135000 140000.0000000175 -60000  135000 130000.0000000191 -60000  135000 119999.9999999916 -60000  135000 109999.9999999825 -60000  135000 99999.99999998408 -60000  135000 89999.99999998568 -60000  135000 79999.99999998725 -60000  135000 69999.99999998885 -60000  135000 59999.99999999045 -60000  135000 49999.99999999205 -60000  135000 39999.99999999366 -60000  135000 29999.99999999526 -60000  135000 19999.9999999968 -60000  135000 9999.999999998399 -60000  9760.266420117418 0 -5952.053284023483  19520.53309387125 0 -7904.10661877425  29307.1102415074 0 -9718.421407375839  39104.7333719938 0 -11473.30036109216  48875.83924532436 0 -13369.19882213981  58571.87012930932 0 -15613.67939664691  68124.11986543986 0 -18408.53002372226  77527.76485865096 0 -21667.33907869995  86719.09466349281 0 -25482.98540480309  95631.92793098884 0 -29908.59492259344  104180.5528547143 0 -35003.66989024555  112449.6580983703 0 -40542.62450796275  120509.52686276 0 -46382.42388125008  127994.6878848568 0 -52930.54997290741  9760.266420117418 250000 -5952.053284023483  19520.53309387125 249999.9999999999 -7904.10661877425  29307.1102415074 250000 -9718.421407375839  39104.7333719938 250000 -11473.30036109216  48875.83924532436 250000 -13369.19882213981  58571.87012930932 250000 -15613.67939664691  68124.11986543986 250000 -18408.53002372226  77527.76485865096 250000 -21667.33907869995  86719.09466349281 250000 -25482.98540480309  95631.92793098884 250000 -29908.59492259344  104180.5528547143 250000 -35003.66989024555  112449.6580983703 250000 -40542.62450796275  120509.52686276 250000 -46382.42388125008  127994.6878848568 250000 -52930.54997290741  145499.999999982 250000 0  154999.999999964 250000 0  164499.999999946 250000 0  173999.999999928 250000 0  183499.99999991 250000 0  192999.9999998977 250000 0  202500.00000009 250000 0  212000.000000072 250000 0  221500.000000054 250000 0  231000.000000036 250000 0  240500.000000018 250000 0  240000.0000001065 0 0  230000.0000002129 0 0  220000.0000003194 0 0  210000.0000004258 0 0  200000.0000005323 0 0  190000.0000006387 0 0  180000.0000006325 0 0  170000.0000004744 0 0  160000.0000003162 0 0  150000.0000001582 0 0  81541.63335874674 35498.13281562441 -1158.202651726381  46004.68664141578 194254.3443995834 -2060.726341037222  32687.99629987251 175105.6839569158 -2219.415882311186  36663.59507600099 63079.34846719183 -2167.093431592842  52002.09530018299 134928.3526843132 -266.7613614382204  59599.13772899003 109177.3480854863 -691.4602217251189  13806.90843888927 84795.87142461444 -3288.608480833754  42042.1003123136 65482.76889364541 -1784.344992951069  85917.78356508871 211210.3489857896 -1084.187284676976  26344.15959288631 140617.4121347481 -2112.437398247788  49350.86723141051 36336.78604214006 -2272.704599832591  21702.40331646254 119880.0690882354 -2466.437976166102  57313.56589490068 220733.4025395545 -2090.49117424689  28866.73893404105 218351.493928639 -3037.311471166797  64300.33793173476 48969.94193502321 -1793.328299662734  52482.25996720623 28090.02703717845 -2196.191483315934  63095.9704402233 54899.2587271606 -1627.600015239288
[...]
<PointData  Vectors="noisy displacement2"> 
<DataArray  type="Float64"  Name="noisy displacement2"  NumberOfComponents="3" format="ascii">2.2384415228801472e-02 -5.8815155451556744e-03 9.3379785695038506e-03  4.5366609487753000e-02 -6.5204793071143297e-02 -2.0138635600188307e-02  2.8177217918459651e-03 2.7070120193234883e-02 1.4340349049865680e-01  -2.3336955263249765e-02 -6.6049850786518052e-02 2.2638005332322578e-01  -3.0777601596309059e-02 9.1907355235430147e-03 4.6246810884822541e-02  1.2427828522949250e-02 4.0037038225511100e-02 4.9218498745186873e-03  -3.0556435715705689e-02 2.9044557561893718e-02 1.3390995868505479e-01  -1.4551052781208903e-02 -1.1384354304046711e-02 2.2692894426013935e-01  -3.2692081432884856e-01 6.0820817608444329e-02 1.0682127385450005e-01  -1.5405189178396411e-01 -7.8773485699263457e-02 8.6968065408697323e-04  -3.8796493112256664e-01 3.2226022873937374e-02 2.2551403431145717e-01  -2.6466932433258167e-01 -6.7004653627496025e-02 4.6409175214357119e-02  -5.7390693632075540e-01 6.6567310611736263e-02 2.6358754847230270e-01  -6.8895217297958766e-01 6.0343078035039327e-02 4.9739593097608070e-01  -2.5228340501300439e-01 -4.8726778200219638e-02 1.0094215307556373e-01  -9.2804108946842001e-01 -4.2503755922951122e-02 5.7368439792959802e-01  -1.3532134534817894e-01 -1.1886819072013842e-01 -1.6301767686145788e-02  -1.0809919971337967e+00 -1.2062951352029362e-01 6.6068969354699292e-01  -1.1354825609312576e-01 -5.2116020380838186e-02 1.7069156204208222e-02  -4.3806886488390706e-01 -1.3953446200219249e-01 1.2968352188577958e-01  -7.1591891081674477e-02 -3.0268768634478495e-02 5.2822460195018489e-02  -9.5902122623705433e-01 -2.6560017961546456e-01 3.7490414324598859e-01  -1.2256904805341322e+00 -3.9483736299168770e-01 9.1808616171910540e-01  -1.2638858399201114e+00 -4.2293433730072838e-01 9.5013484691648165e-01  -9.4868038043569336e-01 -2.9710303602291349e-01 1.7528302389879935e-01  -3.1623443544097701e-01 1.7730412392718296e-02 -2.9934570735969987e-02  -5.0017193372588398e-01 -2.0378981288891235e-01 -2.6620783223604661e-02  -1.0397920016020186e+00 -2.2162967727739044e-01 2.4026258528794664e-01  -8.7760050127114986e-01 -5.2023337495087685e-01 6.6275349605496836e-01  -9.3420698178036654e-01 -3.1729502801453624e-01 3.5026315626138105e-01  -7.7047928894617712e-01 -2.6250184521051001e-01 -2.9195862313513975e-02  -8.1446435270238415e-01 -1.3825583222546184e-01 -1.7505927338677747e-02  -3.6567796054700141e-01 -1.9061199954803026e-01 -4.8120509835785030e-02  -6.7544146521662507e-01 -9.4714364630180486e-02 -8.2935351509452568e-02  -3.7346688209317486e-01 -2.9520479660732957e-01 2.7561252103593598e-01  -3.0915100667580281e-01 -2.3517042508792740e-01 2.5192840003916128e-01  -4.8225520924661636e-01 -1.8823091361962707e-01 1.4307152383290694e-01  -5.5585849861222902e-01 -3.2831531357384688e-02 3.5981092313555320e-02  -2.9131282846156192e-01 -6.6757889350105251e-02 6.2879372322096561e-02  -4.3219642709237066e-01 -3.9812322780818137e-02 -2.6917253065705256e-02  -2.7265310868707793e-01 1.6300989920729838e-02 9.1138536259051078e-02  -5.6334991551960173e-02 -2.9977615224882015e-02 7.0873239724187319e-03  -3.4600711785290306e-01 3.3659352542176127e-03 8.2057639408439784e-02  -8.1930995846576191e-02 -3.8323188362616611e-02 1.9722416450171715e-01  -1.0201219429161970e-01 -4.5986636200910968e-03 -2.4523681827120815e-03  -2.4513407373880865e-02 -2.1711452337759146e-02 4.8851941335176282e-03  -9.9445291133193975e-02 -2.9838981769895159e-02 1.1070324948366572e-02  5.0884324878914457e-02 -6.4218900549130632e-03 7.0607989851568276e-05  9.0652098162320602e-02 -4.0482386979395178e-02 -7.1607494783512797e-03  -3.4454073294255053e-02 3.6479469397432497e-02 -1.0741731306312913e-02  -1.1724355282948030e-02 -5.0730162935400669e-02 6.5506194601263640e-02  1.9131431425131656e-02 -9.0764175846988759e-03 -3.1678989804796529e-03  -5.2169234432838787e-02 -1.1818118794688753e-02 -3.1246307870311019e-02  -3.8460199290798552e-02 -4.9626919957061047e-02 2.2571922271118282e-02  -1.0311147632889480e-02 -5.7572133411919590e-03 1.8887052660922256e-02  -6.4866759823511370e-03 1.8901902293550946e-02 -9.6960184614490897e-03  -5.9343187538925382e-02 -2.8854113313214847e-02 1.0807231984542335e-02  -2.7432583003067668e-02 -1.7826050501660678e-02 7.3700244464997705e-02  -1.0748807835960580e-01 -2.1332735111140623e-02 -8.8227135403388182e-03  -5.8194561862173311e-02 -1.5937099853828289e-02 1.5859805650397858e-02  -2.6325667227244134e-02 -2.5412930948880214e-02 2.0006968096316372e-01  -5.0313144687950387e-03 -9.6949713301964696e-02 2.2622468621945999e-01  -3.4380720706790824e-02 -9.5834470598926816e-02 2.8766318371534472e-01  1.4315164816718403e-02 -4.3112984344715832e-02 2.3035481435664409e-01  4.3568612110556834e-02 -6.0994341625146886e-02 1.5337357920592995e-01  4.4094931818899072e-03 -4.6230631524431125e-02 2.2077922523486421e-01  1.8885084621450835e-02 -5.5400846247834271e-02 2.1191931437240383e-01  4.6175847829020657e-02 -2.8436744444276477e-02 2.2063973660239403e-01  8.3676296946224443e-03 -3.6698585029896508e-02 2.6554463567833664e-01  -4.5719314521003661e-02 3.7414592763761606e-03 2.5072966862845419e-01  -1.7610899596699640e-02 -7.5998729332893353e-03 2.3988926232366889e-01  -7.1807028300576656e-02 -3.6871044860914901e-02 2.6316717617324692e-01  -2.7948066972878806e-02 -4.2072802633133573e-02 3.0211765553313186e-01  -1.5797223282868662e-02 -3.5035907928252945e-02 2.0027020777732665e-01  -1.0331881943589236e-02 -5.6818372786158949e-02 1.7630322205127819e-01  9.2814796676190300e-04 -3.2904855983355449e-02 2.3721724015198906e-01  -6.8158032253286843e-02 -2.5606827737476408e-02 2.3453800828722185e-01  -9.9991222245189772e-03 1.8779314118482875e-02 2.1195092672239699e-01  -3.2512347136740075e-02 -1.5826925572660980e-02 1.9611233930787145e-01  -7.8984270030024575e-02 9.1149150955456212e-03 1.2801011634771287e-01  6.6965976151863574e-02 9.2501279695003831e-03 1.1941672446793541e-01  2.3877372101048573e-02 5.9473253326281462e-03 1.7266894088087106e-01  -3.7537681262993110e-02 2.1374195572142228e-02 6.1120757783337434e-02  1.9487577322951276e-02 2.2151913610456318e-03 1.8151900555196954e-01  -6.2124021278153599e-02 -1.5499415584370855e-02 2.8505082682525024e-02  -4.3616298132068729e-02 -5.1277091134376895e-02 -1.4744820844589343e-02  -4.6606881407697032e-02 -3.5226835658277653e-03 5.4963607768347258e-02  3.4415214180796544e-02 -3.7903482719934441e-02 5.5810517781662216e-03  -5.5207116939899492e-02 5.0861977223074242e-02 4.8188446174709750e-02  -1.9372927675981901e-02 -4.2115135902354855e-02 1.2137093383482364e-02  2.7446816263094375e-02 3.3585437980414579e-03 6.5718349132626766e-02  -8.4344712848958822e-02 -2.7083327599960169e-02 -7.9292494242834813e-02  2.0122895785601443e-02 -3.0759875868664383e-02 5.5675757505398169e-03  2.5003586923793347e-03 -5.1929958863911156e-03 -4.6947094723284108e-02  1.2773197022521717e-02 -1.4847651319456328e-02 -5.5166017677436598e-02  6.6687407729045883e-02 2.7937407083104826e-03 4.7148564297868512e-02  7.6902329821645091e-02 6.2781085652894872e-03 4.8644885049308135e-03  -9.7679056486526528e-03 -4.0471190642669123e-02 3.3057754307334500e-02  2.4522344820331918e-03 -9.9754609089639269e-03 -2.0497349416729448e-02  2.4717728324212449e-03 2.5955791726736156e-02 2.5695477458750515e-02  3.0941500828112568e-02 1.3769607427474108e-02 -1.3226883065929241e-02  -3.0820754795406254e-02 1.0981306541572229e-01 -7.4710544146931387e-03  -2.9346093551470435e-02 2.7662651096511268e-02 3.4254304521369780e-02  4.2522471480985979e-02 4.8651529148960350e-03 -2.6777665910908046e-03  -4.0428999678654320e-02 -3.9534304397205809e-02 5.4610550532590924e-02  -1.3794607219951270e-03 2.1733142359120616e-02 -2.0468167622977838e-02  1.8846825215438557e-02 -2.0307150239915323e-02 3.0510099617562018e-02  3.5082199778448390e-02 3.2610001328094530e-02 1.5160837830757541e-02  2.2978761506407368e-03 1.8131776888201757e-02 -2.5943358070541359e-03  -1.8320185957965023e-02 -4.0178581143523781e-02 -2.2292758615626646e-02  1.4183102134960055e-02 -1.8403113325205039e-02 -1.2725906841002652e-02  -4.7074214004403335e-03 1.6235423994254754e-02 -5.8520106427599264e-02  -1.6468977143669853e-02 2.3929726129967133e-02 -6.1200812180354294e-02  -6.0433925297609867e-02 3.5410927553873213e-02 1.5818306325709172e-02  1.1443808968821745e-02 -1.2493213387281713e-02 3.7133306634342930e-02  7.0825952005407894e-02 4.0921902370998865e-03 4.2362500860158659e-03  3.5796951101891905e-02 -8.3556422233609755e-03 -4.4679832490223829e-02  -1.8220298826142393e-02 3.1703268643612889e-03 2.8460275668055434e-02  2.1574484679189351e-03 -7.5909982753762373e-03 1.1513528085867556e-02  1.3560960633184349e-02 -6.6608782531663293e-03 2.3138300769565020e-02  1.8706697649718527e-02 1.3773956077832925e-03 -8.4570390098585389e-03  -5.5027316511795071e-02 -2.7533338554007913e-02 -6.8893811931999161e-03  -4.9766899182429311e-02 1.9190306429634089e-02 3.0257950023523578e-02  -6.8797030416147348e-02 -4.8109774023902409e-02 6.3665488916012508e-02  -7.2821317929846155e-02 8.0924183958102330e-02 -5.2987040182685876e-03  -6.8722309543708018e-02 2.3904372109159789e-02 7.5848836167323151e-03  -1.0316018355981608e-01 -1.0278713518032292e-01 3.6482370795552832e-02  -5.6447948162882025e-02 2.4906537717102693e-02 4.9641570629738875e-02  -2.6996802661215947e-02 -7.1544349192988924e-02 3.4462297574551895e-02  -5.7110392176385159e-02 -6.5872903744946379e-02 1.3350513151120959e-02  -8.3493594944566776e-02 -1.7257037015511939e-01 3.1346996926287653e-02  -8.6269553550630498e-02 -1.7082882920994555e-01 8.3876549410202866e-02  -1.3647899577481129e-01 -2.6612699597085387e-01 5.1739543464775439e-02  -3.5674046042695695e-01 -2.9369885985940808e-01 2.6416468844485919e-01  -5.5341227092026368e-01 -4.1584162093737531e-01 4.4517308642065384e-01  -7.5453408442046166e-01 -4.5499033982559883e-01 6.1184177115572647e-01  -1.0964794767795023e+00 -5.6142375816650136e-01 8.5991829689070554e-01  -1.2107062405694580e+00 -4.0106773846394156e-01 8.3851504636186824e-01  -1.0809931286339987e+00 -1.8081415320342992e-01 7.0626187956323694e-01  -8.4333684260648378e-01 -2.2904036057620598e-02 4.7850610285022099e-01  -6.4426142915909324e-01 9.1896678259188416e-02 2.7572568576476070e-01  -5.1537504059219008e-01 7.2831986025800113e-02 2.0242384667204957e-01  -2.5189068458016023e-01 1.3655152928532824e-02 1.6526319612122731e-01  -1.7230972476616402e-01 6.0441417178074046e-02 7.2547839186350244e-02  -9.2651028125579099e-02 8.8522533766259431e-02 6.3514211209107996e-02  -6.5825360600042196e-02 -7.1279901690492226e-02 7.0942826890686872e-02  -5.9642454448292727e-02 -8.6427504161066204e-02 -4.0233919128996577e-02  -5.2133752221872762e-02 -5.1935683827619539e-02 -4.2876323291535347e-03  -8.0330807114611935e-02 -5.9584658236160097e-02 8.1882067564672725e-03  -4.4520000952725867e-02 -1.2807387842793855e-01 -2.4327743191199999e-02  3.1710235955837301e-03 -8.8017213806040440e-02 3.5878544699875406e-02  -9.2354201580479259e-02 -3.2081955788503022e-02 7.8901804246508511e-03  -6.6171179450238454e-02 -7.1825352361884184e-02 1.2941159532155229e-02  -6.4838920925516325e-02 -2.1945912074032972e-02 1.3815288179403654e-02  1.3244735503724653e-02 -1.9301471163544970e-02 2.2355618332549521e-01  3.3820617476080687e-04 -1.1090121601132999e-02 2.5170429531695293e-01  -2.5686766569025105e-03 -5.6092388356903174e-02 2.2506268614300956e-01  -1.9505386598640238e-02 -5.2899470315894578e-02 1.9823559290570042e-01  -1.0813930238761069e-02 -4.6400433727899190e-02 2.0725900908743722e-01  9.6215069004824370e-03 -5.8986097365050227e-02 2.0736049141082921e-01  1.4528792323951541e-02 -1.4900625634521263e-02 1.8040703980520312e-01  9.1288207248656772e-02 -6.5376661025386862e-02 2.0063843340084586e-01  2.1054536814280236e-02 -6.5259212334089683e-02 2.4478196137399988e-01  2.5088030423347373e-03 -3.7266156024522740e-02 2.1220834366813998e-01  -1.8723343907773533e-02 2.5326292907572670e-03 1.7371625246291411e-01  -3.9122653695777304e-02 3.6781595693515801e-03 2.5242818258561667e-01  -2.8844661219282999e-02 -1.8164313318804186e-02 2.2070203169643701e-01  9.2202674540377066e-04 -4.8568090409138176e-03 2.3345519471541284e-01  -6.6600838017070374e-03 -4.0400207601917371e-02 2.9139448530524026e-01  2.8791876816554259e-02 -5.2466321128926130e-02 2.6558378657501219e-01  -1.1483473558193008e-02 -5.1769722076550902e-02 2.3781708932089982e-01  -3.3106538686670385e-02 -4.2758608886362119e-02 2.7980047891839344e-01  -1.7768130430774503e-02 1.8035707178453406e-02 2.2844136697065623e-01  -6.4280631613436556e-02 6.6604057505251099e-02 2.4909901869506323e-01  4.4994204342583919e-03 8.5376952082932334e-02 2.3643124815801711e-01  2.3132106040089889e-02 8.4099343219050451e-03 1.8726036474863775e-01  1.1135448753779430e-02 4.9542996194693961e-02 1.8088979372432568e-01  -7.3236630761086163e-02 3.1054192544883247e-02 2.1667794026765383e-01  -3.3253194514945355e-04 4.2519691728961029e-02 1.4266646662415761e-01  6.7664249146802326e-03 4.0455992522255013e-04 1.4106566073471388e-01  -2.6164693189271997e-02 4.2109353535544972e-03 1.8046790807829147e-01  -4.6985383499840654e-02 7.0431296738937943e-02 1.5692945337407144e-01  1.3240007230204969e-02 -1.8016302483848744e-02 1.3682586114185052e-01  -9.9777136619593806e-03 5.7983540066882916e-02 1.5987769709028754e-01  3.0401047376892160e-02 1.1613407909817705e-02 1.5247461301252957e-01  -2.1178896939728877e-02 6.2294719794933437e-02 1.3945330790361377e-01  2.1908962483080528e-02 -7.9754125910529855e-02 1.0945161318047897e-01  1.9837217017068847e-02 -3.4245678289595372e-03 9.8400448745782909e-02  -6.5853404733290738e-02 2.7293242730572688e-02 1.0271516594620118e-01  6.8954618113495209e-02 4.9543793776160014e-02 1.1639489782880481e-01  -2.8998574352939455e-03 2.7014040290214147e-03 1.7117106916081154e-01  5.7928000048929541e-02 2.6334041513417901e-02 1.0853976174943868e-01  3.4934024986531406e-02 3.6683555368191699e-02 7.3605111344835439e-02  5.4820836574432055e-02 -2.3288902114422458e-03 8.4453674499904458e-02  1.0358922905142121e-02 6.1902402311673446e-02 6.9651086510527871e-02  -9.9926618091544205e-03 -1.3097854994702406e-02 2.9077891402005052e-02  7.2775326149639386e-02 1.1713005461319875e-02 5.7413794408923899e-02  -7.2281007567562491e-03 1.9408923115107307e-02 4.1189217797989751e-02  1.0751275911663423e-01 4.3368924395132957e-03 -6.4222580879058688e-02  -3.0472047187916358e-02 -1.2810943705401853e-01 2.4084629781070588e-01  4.8547593124119069e-02 -2.5374631742923877e-02 2.3894910708492104e-01  2.2188248823702551e-02 -7.2517087483626869e-02 2.1043287479199183e-01  2.0216690877362813e-02 -1.2601563087026102e-01 1.7669414960304161e-01  4.6817477372037820e-02 1.3420264280782870e-02 2.5457892701483809e-01  3.0866822172247736e-02 -2.6956150027630386e-02 1.7375591086669584e-01  2.6672626892327762e-02 -5.7533889202990053e-02 8.3110678102893409e-02  6.7191625479888148e-04 -3.2091608732586166e-02 1.0171501810903923e-01  5.4758514730806784e-02 -2.8899881797027811e-02 9.3110765528097411e-02  2.0566193179439161e-02 -1.9132112564627629e-02 5.6819988399299727e-02  3.1978254769199257e-02 -1.4331860262296442e-02 -8.7396131163608552e-03  -2.8129788815896423e-02 -2.9224248574780724e-02 -7.2244910985006641e-02  2.0340319679441245e-02 2.9332418311684830e-02 -3.5122453471934226e-02  -6.5443824261660960e-03 3.2625669708082145e-02 -6.8985115007929892e-02  2.5029570694582337e-02 1.3049580242478090e-02 4.2097053837330187e-02  9.3482460657660985e-03 7.3154278995511690e-03 -1.3297258338565309e-02  3.2280010432636452e-02 2.5834611137645808e-02 4.9349103945538243e-02  -4.3956264833012425e-02 -1.5191847402506016e-02 1.8179460099634448e-02  3.6763718246081656e-02 -6.7359156504013433e-03 5.3103219642635688e-02  -5.4301974418988437e-02 -2.7188486187189054e-02 8.8149316047967125e-03  -4.6076813656867541e-02 -2.2575460581974193e-02 -6.5452446356880065e-02  -3.0754990217064498e-03 -1.2486331779647494e-02 -3.7498963960531811e-03  -1.2873773303379615e-02 6.4874168502150999e-03 -3.7776003095239097e-02  -1.8303753770238002e-03 1.8134347187556975e-02 -3.9818420694550119e-02  -2.2239900551265675e-02 2.7797007372991605e-03 4.6234650814766159e-02  -1.7992125994730691e-02 -3.2136364607188552e-03 1.7743201922232488e-03  3.8998317531151197e-02 2.9369382692437749e-02 2.0217630805015323e-03  6.9099259262389058e-03 3.6674817293954116e-02 -4.6376477446085432e-02  -4.2200369635849149e-04 -2.3453432946337435e-02 3.0896189028149176e-03  1.6697139384559859e-02 1.8987062580326879e-03 -7.3399064504131237e-04  -3.8388915678533114e-02 -1.1953107247788228e-02 -2.5094021455436929e-02  2.8039995078343398e-03 3.0011522044012133e-02 -4.5203205604063122e-02  2.5604509494862083e-02 -4.3284668292604148e-02 1.5387853859195654e-02  -8.7507655321182251e-03 1.4899163378375156e-02 -5.3357540329154352e-02  1.9402752473259663e-02 -1.4211706569615304e-02 -3.9474585915712235e-02  2.8183646853633244e-02 2.4977422491358338e-03 3.8485540150305822e-02  1.6861082394339304e-02 -4.6906369256097626e-02 -1.9013154780318876e-02  -3.9202512867166278e-02 -4.3713506392170753e-02 -1.1775530446710552e-02  -5.9026748234415824e-03 -8.7900708956324108e-03 -6.5911621863628561e-02  -1.5513078813322893e-03 3.7877048301319050e-02 2.2904693965348447e-02  -2.4974832055095469e-02 -2.8146550083288955e-02 -2.7506635551804048e-02  -1.5790922026753525e-02 7.2851866399057646e-03 -4.8675079925488376e-02  -2.5049512381814514e-02 -1.7297495041921240e-02 1.4238030994373641e-03  -3.3661518288045965e-03 -3.3519061227400053e-02 -3.2213860926578609e-02  -4.5212714628211609e-02 1.2463035829704322e-02 2.2080225560145873e-03  2.8513979476396039e-02 -4.9950950115756664e-03 4.2338703681324016e-02  2.8292609535017218e-02 4.8189569882238811e-02 -5.2409095530941030e-02  -7.3099602392874636e-05 3.1351202947016640e-03 -1.2254391968049040e-02  -6.0257776230015395e-02 4.8281189449220940e-02 -3.2799167364127732e-02  -1.8817070244163615e-02 8.7226803567823728e-03 5.2664259583189519e-03  -2.2848638113564329e-02 -8.8168169543771782e-02 -5.5086852751057630e-03  -7.9411683970646921e-03 -5.7935839560231310e-03 1.1734634118222887e-02  -2.6369576828225451e-03 1.0891185561032017e-02 -4.7547559240597288e-02  -3.0195140004461191e-02 -8.3947547947046466e-03 1.6399420540256789e-02  3.7042967070877349e-02 -6.0984589941318196e-03 -3.5190066990845884e-02  3.6197322804032581e-02 -5.7203304250991807e-03 1.1484521189679225e-02  -5.8726126651228401e-02 -3.0522220372911191e-02 -2.2793234397524714e-02  3.1060037260666066e-03 6.8474267535362107e-02 7.0792121614516522e-05  -3.3127330551428686e-03 -4.9657358248006211e-02 2.7336457541083364e-02  -5.3294606566165428e-02 -1.3961621046160472e-02 -3.2244943620499386e-02  2.5316953718017281e-02 2.1772070820095968e-02 -3.2113714876229701e-02  4.2478939466940721e-03 5.9028854482536422e-05 4.9910017842612765e-02  -4.9119759701766956e-02 -1.1282701377468226e-03 -4.6744971413602933e-02  -2.7304296487459620e-02 -3.0301041538311646e-02 6.9134327818537664e-02  -4.9846640270098823e-02 -3.6528339673132709e-02 3.1393236384165378e-02  -1.3865394364119882e-01 -9.0052481706133558e-02 1.2479400565456711e-01  -6.9561892056491284e-02 -8.8961414165812269e-02 1.4577405750488287e-01  -1.1790193969081519e-01 -4.5760979813173182e-02 1.6176301175863400e-01  -9.4947822058748133e-02 -8.8024008214366567e-02 1.3315922405667402e-01  -1.3213180180693185e-01 4.5819875711272030e-02 1.7696574391041486e-01  -9.2334475151179582e-02 -7.3588924082058832e-02 2.1795957279396960e-01  -9.6867269687502575e-02 -7.2334431896933851e-02 2.6504631671320417e-01  -2.0214526124050558e-02 -6.6769336869149987e-02 2.4687637062421847e-01  -5.6464875568735584e-02 -3.0172260303847759e-03 1.6413001245641110e-01  -6.1902610877904635e-02 3.3383808432564277e-02 1.6832064196587870e-01  -9.5294073105134894e-02 -2.6177082892150188e-02 6.0862656412442331e-02  -1.0518469845197921e-01 -5.7008009139073142e-03 1.0442233905960391e-01  -6.8965528147172980e-02 -3.5258264452854945e-02 6.5984718193432157e-02  -8.3700595477319645e-02 -3.35212406637804