<?xml version="1.0"?>
<VTKFile type="UnstructuredGrid"  version="0.1"  >
<UnstructuredGrid>
<Piece  NumberOfPoints="1135" NumberOfCells="2102">
<Points>
<DataArray  type="Float64"  NumberOfComponents="3"  format="ascii">-100000 0 0  -100000 -30000 0  150000 0 0  150000 -30000 0  0 0 0  52000 -30000 0  -100000 -4999.999999998768 0  -100000 -9999.999999988309 0  -100000 -14999.99999996885 0  -100000 -19999.99999997899 0  -100000 -24999.9999999895 0  -95145.80063599758 0 0  -90432.97779113584 0 0  -85857.41802456706 0 0  -81415.12243513134 0 0  -77102.20948973074 0 0  -72914.91150746649 0 0  -68849.56878372833 0 0  -64902.6307456745 0 0  -61070.64774807509 0 0  -57350.27159385412 0 0  -53738.25269120176 0 0  -50231.43486030353 0 0  -46826.75288506119 0 0  -43521.23410719995 0 0  -40311.98847556882 0 0  -37196.21330253175 0 0  -34171.18540107214 0 0  -31234.26212793225 0 0  -28382.87740343358 0 0  -25614.53946636675 0 0  -22926.83004429436 0 0  -20317.40121387334 0 0  -17783.97256811656 0 0  -15324.33017043139 0 0  -12936.32508028788 0 0  -10617.87120125216 0 0  -8366.943123208504 0 0  -6181.573700533525 0 0  -4059.853625096337 0 0  -1999.928969660134 0 0  1677.4193548372 -967.741935483 0  3354.838709674075 -1935.483870965813 0  5032.258064511452 -2903.225806448915 0  6709.677419348715 -3870.967741931951 0  8387.096774184663 -4838.709677414229 0  10064.51612901964 -5806.451612895949 0  11741.93548385462 -6774.193548377667 0  13419.35483868988 -7741.935483859547 0  15096.77419352573 -8709.677419341766 0  16774.19354836119 -9677.419354823764 0  18451.61290319324 -10645.16129030379 0  20129.03225803033 -11612.90322578673 0  21806.45161286679 -12580.64516126931 0  23483.870967708 -13548.38709675462 0  25161.29032254223 -14516.1290322359 0  26838.70967738601 -15483.87096772269 0  28516.12903222638 -16451.61290320753 0  30193.54838707648 -17419.35483869797 0  31870.96774191911 -18387.0967741841 0  33548.38709676544 -19354.83870967237 0  35225.80645161304 -20322.58064516137 0  36903.22580645703 -21290.3225806483 0  38580.64516130341 -22258.06451613658 0  40258.06451614268 -23225.80645162078 0  41935.48387097703 -24193.54838710214 0  43612.90322581223 -25161.29032258398 0  45290.32258064712 -26129.03225806565 0  46967.74193547813 -27096.77419354508 0  48645.16129031762 -28064.5161290294 0  50322.58064515837 -29032.25806451444 0  2011.907990514415 0 0  4064.293412398376 0 0  6157.971343288236 0 0  8293.771594347587 0 0  10472.54245877748 0 0  12695.14841349417 0 0  14962.47076599936 0 0  17275.40986654296 0 0  19634.88294926083 0 0  22041.82643396191 0 0  24497.19538633393 0 0  27001.96433375635 0 0  29557.1267006086 0 0  32163.69675117854 0 0  34822.70839137693 0 0  37535.21694369087 0 0  40302.29971148807 0 0  43125.05253188012 0 0  46004.59630425243 0 0  48942.07444744107 0 0  51938.65140562978 0 0  54995.51692545236 0 0  58113.88338280928 0 0  61294.9892985213 0 0  64540.09596638865 0 0  67850.49073605372 0 0  71227.48720262048 0 0  74672.4265307577 0 0  78186.6745824728 0 0  81771.62644004339 0 0  85428.70431810482 0 0  89159.35906966939 0 0  92965.07101714086 0 0  96847.35031618901 0 0  100807.737357561 0 0  104847.8033711219 0 0  108969.1529723556 0 0  113173.419642632 0 0  117462.2723393081 0 0  121837.4120824108 0 0  126300.5766166148 0 0  130853.5356315058 0 0  135498.0955365839 0 0  140236.1007820579 0 0  145069.4296333089 0 0  150000 -4999.999999998768 0  150000 -9999.999999988309 0  150000 -14999.99999996885 0  150000 -19999.99999997899 0  150000 -24999.9999999895 0  145086.7227727538 -30000 0  140321.2416557315 -30000 0  135699.1114070267 -30000 0  131216.0216498018 -30000 0  126867.7893885091 -30000 0  122650.357399781 -30000 0  118559.7912834062 -30000 0  114592.2748176236 -30000 0  110744.1065897698 -30000 0  107011.6960405678 -30000 0  103391.560874102 -30000 0  99880.3247372644 -30000 0  96474.71075108313 -30000 0  93171.54226753241 -30000 0  89967.73710420042 -30000 0  86860.30652203044 -30000 0  83846.35177047655 -30000 0  80923.06083511579 -30000 0  78087.70644564711 -30000 0  75337.6429081367 -30000 0  72670.3042122304 -30000 0  70083.20343095179 -30000 0  67573.92537757762 -30000 0  65140.13031086444 -30000 0  62779.54609711769 -30000 0  60489.97194146136 -30000 0  58269.27086963068 -30000 0  56115.37147273401 -30000 0  54026.26445008024 -30000 0  50005.06781237502 -30000 0  47970.86237284692 -30000 0  45896.60978828991 -30000 0  43781.52162276049 -30000 0  41624.79397411234 -30000 0  39425.60721690701 -30000 0  37183.12551216946 -30000 0  34896.49662904281 -30000 0  32564.85104111708 -30000 0  30187.30287811753 -30000 0  27762.94840247456 -30000 0  25290.86591786536 -30000 0  22770.11609500075 -30000 0  20199.74080990539 -30000 0  17578.76285591244 -30000 0  14906.18508634352 -30000 0  12180.9949780567 -30000 0  9402.153025782689 -30000 0  6568.604383536855 -30000 0  3679.273053649391 -30000 0  733.0588735131896 -30000 0  -2271.156221322875 -30000 0  -5334.513766631426 -30000 0  -8458.180753056244 -30000 0  -11643.34166060897 -30000 0  -14891.20979076139 -30000 0  -18203.01684642406 -30000 0  -21580.02320706862 -30000 0  -25023.51240629327 -30000 0  -28534.79236128187 -30000 0  -32115.19881236687 -30000 0  -35766.09132382732 -30000 0  -39488.85954019921 -30000 0  -43284.91653533037 -30000 0  -47155.70521365282 -30000 0  -51102.69888084356 -30000 0  -55127.39536551866 -30000 0  -59231.32584059477 -30000 0  -63416.04908643964 -30000 0  -67683.15657299275 -30000 0  -72034.27024516781 -30000 0  -76471.04258255669 -30000 0  -80995.16171624721 -30000 0  -85608.34628475303 -30000 0  -90312.34944072395 -30000 0  -95108.96006846934 -30000 0  55170.44140465849 -14852.37812173804 0  68806.01911613341 -16459.38783571341 0  43564.02565325076 -11682.57058815021 0  83916.16916000879 -14845.19096921969 0  33523.49082248882 -9111.360267055232 0  111217.8257216064 -16020.76275271497 0  48388.56893407716 -19060.53613928148 0  55272.16549534968 -22469.64101054225 0  128659.4199721664 -14557.44380731002 0  25928.23609368325 -6764.267768266262 0  76904.65025603744 -21030.95959837003 0  62397.69665980284 -9156.412107720667 0  62619.64771496111 -22136.32231226452 0  37610.8223393351 -14364.54812200321 0  50773.99489606 -8008.070048978452 0  75771.27072458836 -9717.76022496006 0  42373.46635400885 -17652.89961612915 0  90881.18365756675 -20867.42526393359 0  20435.78686776915 -5544.161023644235 0  91312.88306818578 -9285.563359829152 0  69828.94774685155 -23642.7663599489 0  39764.61767433058 -6550.573675081414 0  105031.4508116721 -21075.93165480056 0  137465.1488564176 -18053.18768285711 0  105935.2195628306 -10003.86033736146 0  61417.3813694218 -15555.23401778756 0  50467.32479652706 -23493.31047516662 0  83630.02434698568 -22874.03270288995 0  29527.95625927347 -11097.5259713461 0  119770.901133168 -20672.24933039217 0  119923.4374615707 -9384.681062188927 0  83003.82413975756 -7449.122900768248 0  69317.95675342977 -6847.192456542041 0  32973.73824128314 -13722.16947525317 0  56846.1701496407 -6427.989892907168 0  45021.12963056919 -6595.85415731081 0  30714.82574836308 -4802.076584689381 0  59379.62140554602 -25199.81883334681 0  134669.9979584411 -9660.404482359452 0  97483.88981296893 -22874.53509790732 0  44818.40227344312 -21158.8120953342 0  15703.55825807498 -4046.083341761724 0  74669.87552004799 -15410.91969714289 0  53030.74418065933 -26333.36914447957 0  98206.82880869266 -6622.188770007991 0  35390.16461144942 -4854.066122003921 0  111629.5819642405 -22963.75104810576 0  58922.35823519713 -19607.49757594366 0  22815.57048457536 -8893.871375041605 0  52837.81680997186 -18593.85146684312 0  112684.8828079512 -7702.211069330723 0  65995.96524888698 -25409.0520492062 0  128871.9119627058 -22741.43204217833 0  74185.71392645039 -25155.53161661827 0  37988.81124208077 -10830.81513999276 0  38521.99045453949 -17948.3861546062 0  89976.18796349337 -15437.16945382231 0  45786.4307854262 -15780.47180036155 0  58105.00281658344 -11149.38343529123 0  126295.6488136865 -6694.97865299729 0  23763.91398816766 -3777.865919921854 0  67010.02146181438 -11881.40481013914 0  79353.16023954583 -25182.70378831994 0  25719.99072410226 -10852.08704459014 0  12393.43587465811 -3327.502830679422 0  142671.6114738874 -13433.00270876057 0  104348.6335862746 -15468.40105999806 0  87993.4703121534 -25294.45672816718 0  41151.96087411619 -14347.18284111252 0  72313.55893494847 -19328.34394169431 0  35019.84906158903 -16396.19232607656 0  79911.27866697445 -17475.59423661196 0  53901.2201494957 -10769.38520527428 0  61414.49469642447 -4865.100314350883 0  64782.89395007852 -18267.63500287047 0  27471.74448995095 -3649.900329430583 0  46958.33638284273 -23389.89672473853 0  47008.65902273479 -9904.795459821291 0  53091.59235862715 -4256.404517555482 0  56055.03832011315 -26406.9424326668 0  73932.79173107989 -4947.063406444157 0  79765.76478888278 -12273.04091402238 0  48973.05965185607 -4371.738015034729 0  88142.86053658664 -5634.836116687244 0  92896.4374865048 -25197.56459858239 0  71644.47457176352 -12323.29156504581 0  62537.76829668373 -26616.63873998325 0  40966.51451514213 -20385.99710813889 0  86451.62649705217 -18992.60447749737 0  86611.02376732473 -10858.7539336648 0  118599.293651589 -15183.8503473523 0  17585.41804619965 -6798.691730928709 0  42439.10614204721 -3855.775529688251 0  78849.86109638907 -5191.547073944816 0  30035.71442600865 -13998.37597660063 0  29272.58671007308 -7939.874718574771 0  143125.8834653435 -23302.80908485866 0  142652.7652076836 -6315.97408933981 0  102074.9012733853 -25283.80158377441 0  65926.26842683255 -4073.617946238952 0  20030.75232545765 -8387.760419307682 0  66646.39443989065 -21433.63895287283 0  35641.76882177516 -11897.03678099379 0  69538.4407931389 -26259.4743942248 0  93694.40850794084 -17256.16239780856 0  18745.37997183999 -2846.808973564708 0  43359.64285465333 -8287.349591695303 0  93891.1253556375 -4946.807158995385 0  95656.03959246754 -11590.09659617805 0  102135.765939810
[...]
<CellData  Vectors="u"> 
<DataArray  type="Float64"  Name="u"  NumberOfComponents="3" format="ascii">inf  inf 0.0000000000000000e+00  inf  inf 0.0000000000000000e+00  inf  inf 0.0000000000000000e+00  inf  inf 0.0000000000000000e+00  inf  inf 0.0000000000000000e+00  inf  inf 0.0000000000000000e+00  inf  inf 0.0000000000000000e+00  inf  inf 0.0000000000000000e+00  inf  inf 0.0000000000000000e+00  inf  inf 0.0000000000000000e+00  inf  inf 0.0000000000000000e+00  inf  inf 0.0000000000000000e+00  inf  inf 0.0000000000000000e+00  inf  inf 0.0000000000000000e+00  inf  inf 0.0000000000000000e+00  inf  inf 0.0000000000000000e+00  inf  inf 0.0000000000000000e+00  inf  inf 0.0000000000000000e+00  inf  inf 0.0000000000000000e+00  inf  inf 0.0000000000000000e+00  inf  inf 0.0000000000000000e+00  inf  inf 0.0000000000000000e+00  inf  inf 0.0000000000000000e+00  inf  inf 0.0000000000000000e+00  inf  inf 0.0000000000000000e+00  inf  inf 0.0000000000000000e+00  inf  inf 0.0000000000000000e+00  inf  inf 0.0000000000000000e+00  inf  inf 0.0000000000000000e+00  inf  inf 0.0000000000000000e+00  inf  inf 0.0000000000000000e+00  inf  inf 0.0000000000000000e+00  inf  inf 0.0000000000000000e+00  inf  inf 0.0000000000000000e+00  inf  inf 0.0000000000000000e+00  inf  inf 0.0000000000000000e+00  inf  inf 0.0000000000000000e+00  inf  inf 0.0000000000000000e+00  inf  inf 0.0000000000000000e+00  inf  inf 0.0000000000000000e+00  inf  inf 0.0000000000000000e+00  inf  inf 0.0000000000000000e+00  inf  inf 0.0000000000000000e+00  inf  inf 0.0000000000000000e+00  inf  inf 0.0000000000000000e+00  inf  inf 0.0000000000000000e+00  inf  inf 0.0000000000000000e+00  inf  inf 0.0000000000000000e+00  inf  inf 0.0000000000000000e+00  inf  inf 0.0000000000000000e+00  inf  inf 0.0000000000000000e+00  inf  inf 0.0000000000000000e+00  inf  inf 0.0000000000000000e+00  inf  inf 0.0000000000000000e+00  inf  inf 0.0000000000000000e+00  inf  inf 0.0000000000000000e+00  inf  inf 0.0000000000000000e+00  inf  inf 0.0000000000000000e+00  inf  inf 0.0000000000000000e+00  inf  inf 0.0000000000000000e+00  inf  inf 0.0000000000000000e+00  inf  inf 0.0000000000000000e+00  inf  inf 0.0000000000000000e+00  inf  inf 0.0000000000000000e+00  inf  inf 0.0000000000000000e+00  inf  inf 0.0000000000000000e+00  inf  inf 0.0000000000000000e+00  inf  inf 0.0000000000000000e+00  inf  inf 0.0000000000000000e+00  inf  inf 0.0000000000000000e+00  inf  inf 0.0000000000000000e+00  inf  inf 0.0000000000000000e+00  inf  inf 0.0000000000000000e+00  inf  inf 0.0000000000000000e+00  inf  inf 0.0000000000000000e+00  inf  inf 0.0000000000000000e+00  inf  inf 0.0000000000000000e+00  inf  inf 0.0000000000000000e+00  inf  inf 0.0000000000000000e+00  inf  inf 0.0000000000000000e+00  inf  inf 0.0000000000000000e+00  inf  inf 0.0000000000000000e+00  inf  inf 0.0000000000000000e+00  inf  inf 0.0000000000000000e+00  inf  inf 0.0000000000000000e+00  inf  inf 0.0000000000000000e+00  inf  inf 0.0000000000000000e+00  inf  inf 0.0000000000000000e+00  inf  inf 0.0000000000000000e+00  inf  inf 0.0000000000000000e+00  inf  inf 0.0000000000000000e+00  inf  inf 0.0000000000000000e+00  inf  inf 0.0000000000000000e+00  inf  inf 0.0000000000000000e+00  inf  inf 0.0000000000000000e+00  inf  inf 0.0000000000000000e+00  inf  inf 0.0000000000000000e+00  inf  inf 0.0000000000000000e+00  inf  inf 0.0000000000000000e+00  inf  inf 0.0000000000000000e+00  inf  inf 0.0000000000000000e+00  inf  inf 0.0000000000000000e+00  inf  inf 0.0000000000000000e+00  inf  inf 0.0000000000000000e+00  inf  inf 0.0000000000000000e+00  inf  inf 0.0000000000000000e+00  inf  inf 0.0000000000000000e+00  inf  inf 0.0000000000000000e+00  inf  inf 0.0000000000000000e+00  inf  inf 0.0000000000000000e+00  inf  inf 0.0000000000000000e+00  inf  inf 0.0000000000000000e+00  inf  inf 0.0000000000000000e+00  inf  inf 0.0000000000000000e+00  inf  inf 0.0000000000000000e+00  inf  inf 0.0000000000000000e+00  inf  inf 0.0000000000000000e+00  inf  inf 0.0000000000000000e+00  inf  inf 0.0000000000000000e+00  inf  inf 0.0000000000000000e+00  inf  inf 0.0000000000000000e+00  inf  inf 0.0000000000000000e+00  inf  inf 0.0000000000000000e+00  inf  inf 0.0000000000000000e+00  inf  inf 0.0000000000000000e+00  inf  inf 0.0000000000000000e+00  inf  inf 0.0000000000000000e+00  inf  inf 0.0000000000000000e+00  inf  inf 0.0000000000000000e+00  inf  inf 0.0000000000000000e+00  inf  inf 0.0000000000000000e+00  inf  inf 0.0000000000000000e+00  inf  inf 0.0000000000000000e+00  inf  inf 0.0000000000000000e+00  inf  inf 0.0000000000000000e+00  inf  inf 0.0000000000000000e+00  inf  inf 0.0000000000000000e+00  inf  inf 0.0000000000000000e+00  inf  inf 0.0000000000000000e+00  inf  inf 0.0000000000000000e+00  inf  inf 0.0000000000000000e+00  inf  inf 0.0000000000000000e+00  inf  inf 0.0000000000000000e+00  inf  inf 0.0000000000000000e+00  inf  inf 0.0000000000000000e+00  inf  inf 0.0000000000000000e+00  inf  inf 0.0000000000000000e+00  inf  inf 0.0000000000000000e+00  inf  inf 0.0000000000000000e+00  inf  inf 0.0000000000000000e+00  inf  inf 0.0000000000000000e+00  inf  inf 0.0000000000000000e+00  inf  inf 0.0000000000000000e+00  inf  inf 0.0000000000000000e+00  inf  inf 0.0000000000000000e+00  inf  inf 0.0000000000000000e+00  inf  inf 0.0000000000000000e+00  inf  inf 0.0000000000000000e+00  inf  inf 0.0000000000000000e+00  inf  inf 0.0000000000000000e+00  inf  inf 0.0000000000000000e+00  inf  inf 0.0000000000000000e+00  inf  inf 0.0000000000000000e+00  inf  inf 0.0000000000000000e+00  inf  inf 0.0000000000000000e+00  inf  inf 0.0000000000000000e+00  inf  inf 0.0000000000000000e+00  inf  inf 0.0000000000000000e+00  inf  inf 0.0000000000000000e+00  inf  inf 0.0000000000000000e+00  inf  inf 0.0000000000000000e+00  inf  inf 0.0000000000000000e+00  inf  inf 0.0000000000000000e+00  inf  inf 0.0000000000000000e+00  inf  inf 0.0000000000000000e+00  inf  inf 0.0000000000000000e+00  inf  inf 0.0000000000000000e+00  inf  inf 0.0000000000000000e+00  inf  inf 0.0000000000000000e+00  inf  inf 0.0000000000000000e+00  inf  inf 0.0000000000000000e+00  inf  inf 0.0000000000000000e+00  inf  inf 0.0000000000000000e+00  inf  inf 0.0000000000000000e+00  inf  inf 0.0000000000000000e+00  inf  inf 0.0000000000000000e+00  inf  inf 0.0000000000000000e+00  inf  inf 0.0000000000000000e+00  inf  inf 0.0000000000000000e+00  inf  inf 0.0000000000000000e+00  inf  inf 0.0000000000000000e+00  inf  inf 0.0000000000000000e+00  inf  inf 0.0000000000000000e+00  inf  inf 0.0000000000000000e+00  inf  inf 0.0000000000000000e+00  inf  inf 0.0000000000000000e+00  inf  inf 0.0000000000000000e+00  inf  inf 0.0000000000000000e+00  inf  inf 0.0000000000000000e+00  inf  inf 0.0000000000000000e+00  inf  inf 0.0000000000000000e+00  inf  inf 0.0000000000000000e+00  inf  inf 0.0000000000000000e+00  inf  inf 0.0000000000000000e+00  inf  inf 0.0000000000000000e+00  inf  inf 0.0000000000000000e+00  inf  inf 0.0000000000000000e+00  inf  inf 0.0000000000000000e+00  inf  inf 0.0000000000000000e+00  inf  inf 0.0000000000000000e+00  inf  inf 0.0000000000000000e+00  inf  inf 0.0000000000000000e+00  inf  inf 0.0000000000000000e+00  inf  inf 0.0000000000000000e+00  inf  inf 0.0000000000000000e+00  inf  inf 0.0000000000000000e+00  inf  inf 0.0000000000000000e+00  inf  inf 0.0000000000000000e+00  inf  inf 0.0000000000000000e+00  inf  inf 0.0000000000000000e+00  inf  inf 0.0000000000000000e+00  inf  inf 0.0000000000000000e+00  inf  inf 0.0000000000000000e+00  inf  inf 0.0000000000000000e+00  inf  inf 0.0000000000000000e+00  inf  inf 0.0000000000000000e+00  inf  inf 0.0000000000000000e+00  inf  inf 0.0000000000000000e+00  inf  inf 0.0000000000000000e+00  inf  inf 0.0000000000000000e+00  inf  inf 0.0000000000000000e+00  inf  inf 0.0000000000000000e+00  inf  inf 0.0000000000000000e+00  inf  inf 0.0000000000000000e+00  inf  inf 0.0000000000000000e+00  inf  inf 0.0000000000000000e+00  inf  inf 0.0000000000000000e+00  inf  inf 0.0000000000000000e+00  inf  inf 0.0000000000000000e+00  inf  inf 0.0000000000000000e+00  inf  inf 0.0000000000000000e+00  inf  inf 0.0000000000000000e+00  inf  inf 0.0000000000000000e+00  inf  inf 0.0000000000000000e+00  inf  inf 0.0000000000000000e+00  inf  inf 0.0000000000000000e+00  inf  inf 0.0000000000000000e+00  inf  inf 0.0000000000000000e+00  inf  inf 0.0000000000000000e+00  inf  inf 0.0000000000000000e+00  inf  inf 0.0000000000000000e+00  inf  inf 0.0000000000000000e+00  inf  inf 0.0000000000000000e+00  inf  inf 0.0000000000000000e+00  inf  inf 0.0000000000000000e+00  inf  inf 0.0000000000000000e+00  inf  inf 0.0000000000000000e+00  inf  inf 0.0000000000000000e+00  inf  inf 0.0000000000000000e+00  inf  inf 0.0000000000000000e+00  inf  inf 0.0000000000000000e+00  inf  inf 0.0000000000000000e+00  inf  inf 0.0000000000000000e+00  inf  inf 0.0000000000000000e+00  inf  inf 0.0000000000000000e+00  inf  inf 0.0000000000000000e+00  inf  inf 0.0000000000000000e+00  inf  inf 0.0000000000000000e+00  inf  inf 0.0000000000000000e+00  inf  inf 0.0000000000000000e+00  inf  inf 0.0000000000000000e+00  inf  inf 0.0000000000000000e+00  inf  inf 0.0000000000000000e+00  inf  inf 0.0000000000000000e+00  inf  inf 0.0000000000000000e+00  inf  inf 0.0000000000000000e+00  inf  inf 0.0000000000000000e+00  inf  inf 0.0000000000000000e+00  inf  inf 0.0000000000000000e+00  inf  inf 0.0000000000000000e+00  inf  inf 0.0000000000000000e+00  inf  inf 0.0000000000000000e+00  inf  inf 0.0000000000000000e+00  inf  inf 0.0000000000000000e+00  inf  inf 0.0000000000000000e+00  inf  inf 0.0000000000000000e+00  inf  inf 0.0000000000000000e+00  inf  inf 0.0000000000000000e+00  inf  inf 0.0000000000000000e+00  inf  inf 0.0000000000000000e+00  inf  inf 0.0000000000000000e+00  inf  inf 0.0000000000000000e+00  inf  inf 0.0000000000000000e+00  inf  inf 0.0000000000000000e+00  inf  inf 0.0000000000000000e+00  inf  inf 0.0000000000000000e+00  inf  inf 0.0000000000000000e+00  inf  inf 0.0000000000000000e+00  inf  inf 0.0000000000000000e+00  inf  inf 0.0000000000000000e+00  inf  inf 0.0000000000000000e+00  inf  inf 0.0000000000000000e+00  inf  inf 0.0000000000000000e+00  inf  inf 0.0000000000000000e+00  inf  inf 0.0000000000000000e+00  inf  inf 0.0000000000000000e+00  inf  inf 0.0000000000000000e+00  inf  inf 0.0000000000000000e+00  inf  inf 0.0000000000000000e+00  inf  inf 0.0000000000000000e+00  inf  inf 0.0000000000000000e+00  inf  inf 0.0000000000000000e+00  inf  inf 0.0000000000000000e+00  inf  inf 0.0000000000000000e+00  inf  inf 0.0000000000000000e+00  inf  inf 0.0000000000000000e+00  inf  inf 0.0000000000000000e+00  inf  inf 0.0000000000000000e+00  inf  inf 0.0000000000000000e+00  inf  inf 0.0000000000000000e+00  inf  inf 0.0000000000000000e+00  inf  inf 0.0000000000000000e+00  inf  inf 0.0000000000000000e+00  inf  inf 0.0000000000000000e+00  inf  inf 0.0000000000000000e+00  inf  inf 0.0000000000000000e+00  inf  inf 0.0000000000000000e+00  inf  inf 0.0000000000000000e+00  inf  inf 0.0000000000000000e+00  inf  inf 0.0000000000000000e+00  inf  inf 0.0000000000000000e+00  inf  inf 0.0000000000000000e+00  inf  inf 0.0000000000000000e+00  inf  inf 0.0000000000000000e+00  inf  inf 0.0000000000000000e+00  inf  inf 0.0000000000000000e+00  inf  inf 0.0000000000000000e+00  inf  inf 0.0000000000000000e+00  inf  inf 0.0000000000000000e+00  inf  inf 0.0000000000000000e+00  inf  inf 0.0000000000000000e+00  inf  inf 0.0000000000000000e+00  inf  inf 0.0000000000000000e+00  inf  inf 0.0000000000000000e+00  inf  inf 0.0000000000000000e+00  inf  inf 0.0000000000000000e+00  inf  inf 0.0000000000000000e+00  inf  inf 0.0000000000000000e+00  inf  inf 0.0000000000000000e+00  inf  inf 0.0000000000000000e+00  inf  inf 0.0000000000000000e+00  inf  inf 0.0000000000000000e+00  inf  inf 0.0000000000000000e+00  inf  inf 0.0000000000000000e+00  inf  inf 0.0000000000000000e+00  inf  inf 0.0000000000000000e+00  inf  inf 0.0000000000000000e+00  inf  inf 0.0000000000000000e+00  inf  inf 0.0000000000000000e+00  inf  inf 0.0000000000000000e+00  inf  inf 0.0000000000000000e+00  inf  inf 0.0000000000000000e+00  inf  inf 0.0000000000000000e+00  inf  inf 0.0000000000000000e+00  inf  inf 0.0000000000000000e+00  inf  inf 0.0000000000000000e+00  inf  inf 0.0000000000000000e+00  inf  inf 0.0000000000000000e+00  inf  inf 0.0000000000000000e+00  inf  inf 0.0000000000000000e+00  inf  inf 0.0000000000000000e+00  inf  inf 0.0000000000000000e+00  inf  inf 0.0000000000000000e+00  inf  inf 0.0000000000000000e+00  inf  inf 0.0000000000000000e+00  inf  inf 0.0000000000000000e+00  inf  inf 0.0000000000000000e+00  inf  inf 0.0000000000000000e+00  inf  inf 0.0000000000000000e+00  inf  inf 0.0000000000000000e+00  inf  inf 0.0000000000000000e+00  inf  inf 0.0000000000000000e+00  inf  inf 0.0000000000000000e+00  inf  inf 0.0000000000000000e+00  inf  inf 0.0000000000000000e+00  inf  inf 0.0000000000000000e+00  inf  inf 0.0000000000000000e+00  inf  inf 0.0000000000000000e+00  inf  inf 0.0000000000000000e+00  inf  inf 0.0000000000000000e+00  inf  inf 0.0000000000000000e+00  inf  inf 0.0000000000000000e+00  inf  inf 0.0000000000000000e+00  inf  inf 0.0000000000000000e+00  inf  inf 0.0000000000000000e+00  inf  inf 0.0000000000000000e+00  inf  inf 0.0000000000000000e+00  inf  inf 0.0000000000000000e+00  inf  inf 0.0000000000000000e+00  inf  inf 0.0000000000000000e+00  inf  inf 0.0000000000000000e+00  inf  inf 0.0000000000000000e+00  inf  inf 0.0000000000000000e+00  inf  inf 0.0000000000000000e+00  inf  inf 0.0000000000000000e+00  inf  inf 0.0000000000000000e+00  inf  inf 0.0000000000000000e+00  inf  inf 0.0000000000000000e+00  inf  inf 0.0000000000000000e+00  inf  inf 0.0000000000000000e+00  inf  inf 0.0000000000000000e+00  inf  inf 0.0000000000000000e+00  inf  inf 0.0000000000000000e+00  inf  inf 0.0000000000000000e+00  inf  inf 0.0000000000000000e+00  inf  inf 0.0000000000000000e+00  inf  inf 0.0000000000000000e+00  inf  inf 0.0000000000000000e+00  inf  inf 0.0000000000000000e+00  inf  inf 0.0000000000000000e+00  inf  inf 0.0000000000000000e+00  inf  inf 0.0000000000000000e+00  inf  inf 0.0000000000000000e+00  inf  inf 0.0000000000000000e+00  inf  inf 0.0000000000000000e+00  inf  inf 0.0000000000000000e+00  inf  inf 0.0000000000000000e+00  inf  inf 0.0000000000000000e+00  inf  inf 0.0000000000000000e+00  inf  inf 0.0000000000000000e+00  inf  inf 0.0000000000000000e+00  inf  inf 0.0000000000000000e+00  inf  inf 0.0000000000000000e+00  inf  inf 0.0000000000000000e+00  inf  inf 0.0000000000000000e+00  inf  inf 0.0000000000000000e+00  inf  inf 0.0000000000000000e+00  inf  inf 0.0000000000000000e+00  inf  inf 0.0000000000000000e+00  inf  inf 0.0000000000000000e+00  inf  inf 0.0000000000000000e+00  inf  inf 0.0000000000000000e+00  inf  inf 0.0000000000000000e+00  inf  inf 0.0000000000000000e+00  inf  inf 0.0000000000000000e+00  inf  inf 0.0000000000000000e+00  inf  inf 0.0000000000000000e+00  inf  inf 0.0000000000000000e+00  inf  inf 0.0000000000000000e+00  inf  inf 0.0000000000000000e+00  inf  inf 0.0000000000000000e+00  inf  inf 0.0000000000000000e+00  inf  inf 0.0000000000000000e+00  inf  inf 0.0000000000000000e+00  inf  inf 0.0000000000000000e+00  inf  inf 0.0000000000000000e+00  inf  inf 0.0000000000000000e+00  inf  inf 0.0000000000000000e+00  inf  inf 0.0000000000000000e+00  inf  inf 0.0000000000000000e+00  inf  inf 0.0000000000000000e+00  inf  inf 0.0000000000000000e+00  inf  inf 0.0000000000000000e+00  inf  inf 0.0000000000000000e+00  inf  inf 0.0000000000000000e+00  inf  inf 0.0000000000000000e+00  inf  inf 0.0000000000000000e+00  inf  inf 0.0000000000000000e+00  inf  inf 0.0000000000000000e+00  inf  inf 0.0000000000000000e+00  inf  inf 0.0000000000000000e+00  inf  inf 0.0000000000000000e+00  inf  inf 0.0000000000000000e+00  inf  inf 0.0000000000000000e+00  inf  inf 0.0000000000000000e+00  inf  inf 0.0000000000000000e+00  inf  inf 0.0000000000000000e+00  inf  inf 0.0000000000000000e+00  inf  inf 0.0000000000000000e+00  inf  inf 0.0000000000000000e+00  inf  inf 0.0000000000000000e+00  inf  inf 0.0000000000000000e+00  inf  inf 0.0000000000000000e+00  inf  inf 0.0000000000000000e+00  inf  inf 0.0000000000000000e+00  inf  inf 0.0000000000000000e+00  inf  inf 0.0000000000000000e+00  inf  inf 0.0000000000000000e+00  inf  inf 0.0000000000000000e+00  inf  inf 0.0000000000000000e+00  inf  inf 0.0000000000000000e+00  inf  inf 0.0000000000000000e+00  inf  inf 0.0000000000000000e+00  inf  inf 0.0000000000000000e+00  inf  inf 0.0000000000000000e+00  inf  inf 0.0000000000000000e+00  inf  inf 0.0000000000000000e+00  inf  inf 0.0000000000000000e+00  inf  inf 0.0000000000000000e+00  inf  inf 0.0000000000000000e+00  inf  inf 0.0000000000000000e+00  inf  inf 0.0000000000000000e+00  inf  inf 0.0000000000000000e+00  inf  inf 0.0000000000000000e+00  inf  inf 0.0000000000000000e+00  inf  inf 0.0000000000000000e+00  inf  inf 0.0000000000000000e+00  inf  inf 0.0000000000000000e+00  inf  inf 0.0000000000000000e+00  inf  inf 0.0000000000000000e+00  inf  inf 0.0000000000000000e+00  inf  inf 0.0000000000000000e+00  inf  inf 0.0000000000000000e+00  inf  inf 0.0000000000000000e+00  inf  inf 0.0000000000000000e+00  inf  inf 0.0000000000000000e+00  inf  inf 0.0000000000000000e+00  inf  inf 0.0000000000000000e+00  inf  inf 0.0000000000000000e+00  inf  inf 0.0000000000000000e+00  inf  inf 0.0000000000000000e+00  inf  inf 0.0000000000000000e+00  inf  inf 0.0000000000000000e+00  inf  inf 0.0000000000000000e+00  inf  inf 0.0000000000000000e+00  inf  inf 0.0000000000000000e+00  inf  inf 0.0000000000000000e+00  inf  inf 0.0000000000000000e+00  inf  inf 0.0000000000000000e+00  inf  inf 0.0000000000000000e+00  inf  inf 0.0000000000000000e+00  inf  inf 0.0000000000000000e+00  inf  inf 0.0000000000000000e+00  inf  inf 0.0000000000000000e+00  inf  inf 0.0000000000000000e+00  inf  inf 0.0000000000000000e+00  inf  inf 0.0000000000000000e+00  inf  inf 0.0000000000000000e+00  inf  inf 0.0000000000000000e+00  inf  inf 0.0000000000000000e+00  inf  inf 0.0000000000000000e+00  inf  inf 0.0000000000000000e+00  inf  inf 0.0000000000000000e+00  inf  inf 0.0000000000000000e+00  inf  inf 0.0000000000000000e+00  inf  inf 0.0000000000000000e+00  inf  inf 0.0000000000000000e+00  inf  inf 0.0000000000000000e+00  inf  inf 0.0000000000000000e+00  inf  inf 0.0000000000000000e+00  inf  inf 0.0000000000000000e+00  inf  inf 0.0000000000000000e+00  inf  inf 0.0000000000000000e+00  inf  inf 0.0000000000000000e+00  inf  inf 0.0000000000000000e+00  inf  inf 0.0000000000000000e+00  inf  inf 0.0000000000000000e+00  inf  inf 0.0000000000000000e+00  inf  inf 0.0000000000000000e+00  inf  inf 0.0000000000000000e+00  inf  inf 0.0000000000000000e+00  inf  inf 0.0000000000000000e+00  inf  inf 0.0000000000000000e+00  inf  inf 0.0000000000000000e+00  inf  inf 0.0000000000000000e+00  inf  inf 0.0000000000000000e+00  inf  inf 0.0000000000000000e+00  inf  inf 0.0000000000000000e+00  inf  inf 0.0000000000000000e+00  inf  inf 0.0000000000000000e+00  inf  inf 0.0000000000000000e+00  inf  inf 0.0000000000000000e+00  inf  inf 0.0000000000000000e+00  inf  inf 0.0000000000000000e+00  inf  inf 0.0000000000000000e+00  inf  inf 0.0000000000000000e+00  inf  inf 0.0000000000000000e+00  inf  inf 0.0000000000000000e+00  inf  inf 0.0000000000000000e+00  inf  inf 0.0000000000000000e+00  inf  inf 0.0000000000000000e+00  inf  inf 0.0000000000000000e+00  inf  inf 0.0000000000000000e+00  inf  inf 0.0000000000000000e+00  inf  inf 0.0000000000000000e+00  inf  inf 0.0000000000000000e+00  inf  inf 0.0000000000000000e+00  inf  inf 0.0000000000000000e+00  inf  inf 0.0000000000000000e+00  inf  inf 0.0000000000000000e+00  inf  inf 0.0000000000000000e+00  inf  inf 0.0000000000000000e+00  inf  inf 0.0000000000000000e+00  inf  inf 0.0000000000000000e+00  inf  inf 0.0000000000000000e+00  inf  inf 0.0000000000000000e+00  inf  inf 0.0000000000000000e+00  inf  inf 0.0000000000000000e+00  inf  inf 0.0000000000000000e+00  inf  inf 0.0000000000000000e+00  inf  inf 0.0000000000000000e+00  inf  inf 0.0000000000000000e+00  inf  inf 0.0000000000000000e+00  