<?xml version="1.0"?>
<VTKFile type="UnstructuredGrid"  version="0.1"  >
<UnstructuredGrid>
<Piece  NumberOfPoints="8385" NumberOfCells="35823">
<Points>
<DataArray  type="Float64"  NumberOfComponents="3"  format="ascii">0 0 -4000  0 250000 -4000  250000 0 0  250000 250000 0  130000 0 -60000  130000 250000 -60000  250000 0 -60000  250000 250000 -60000  72147.7 166878.6 0  86225.3 177671.7 0  72082.2 161278 0  80407.60000000001 166683.7 0  66765.10000000001 151053.8 0  70533.5 147695.4 0  88829.10000000001 164696.8 0  62768.1 132621.8 0  114956.1 180662.6 0  63924.4 130258.4 0  156213.5 216508.7 0  94617.8 155302.3 0  144307.5 195630.5 0  87231.39999999999 141931.8 0  68256.5 121278.3 0  69835.5 115711.4 0  95984.2 132464.1 0  116918.1 151520.9 0  96139.8 122416.1 0  78677.39999999999 102260.8 0  93451.5 115391.6 0  111847.4 131476.2 0  107207 116320.3 0  142564.4 147908.4 0  121370.1 121838.1 0  82154.39999999999 83011.2 0  84152.3 84289.39999999999 0  99259 96094.39999999999 0  106151.5 94923 0  159682.5 139591.9 0  136050.5 110604.8 0  111591.5 84279.10000000001 0  126001.6 88238.2 0  105758.7 68122.8 0  151826.4 109709.5 0  197157.2 140577 0  129859.4 33265.4 0  140000 0 0  136000 250000 0  4857.142857142332 250000 -3857.142857142872  9714.285714284615 250000 -3714.285714285747  14571.42857143168 250000 -3571.42857142848  19428.57142857481 250000 -3428.571428571329  24285.71428571539 250000 -3285.714285714253  29142.85714285597 250000 -3142.857142857177  33999.99999999657 250000 -3000.000000000101  38857.14285713715 250000 -2857.142857143025  43714.28571427773 250000 -2714.285714285949  48571.42857141832 250000 -2571.428571428873  53428.57142855891 250000 -2428.571428571797  58285.71428569948 250000 -2285.714285714721  63142.85714284007 250000 -2142.857142857645  67999.99999998066 250000 -2000.000000000569  72857.14285712125 250000 -1857.142857143493  77714.28571426184 250000 -1714.285714286416  82571.42857140242 250000 -1571.428571429341  87428.571428543 250000 -1428.571428572265  92285.71428568359 250000 -1285.714285715189  97142.85714282417 250000 -1142.857142858113  101999.9999999648 250000 -1000.000000001036  106857.1428571053 250000 -857.1428571439606  111714.2857142459 250000 -714.2857142868847  116571.4285713865 250000 -571.4285714298085  121428.5714285271 250000 -428.5714285727327  126285.7142856677 250000 -285.7142857156564  131142.8571428107 250000 -142.8571428585083  250000 240000.0000000016 0  250000 230000.0000000032 0  250000 220000.0000000048 0  250000 210000.0000000064 0  250000 200000.0000000079 0  250000 190000.0000000095 0  250000 180000.0000000111 0  250000 170000.0000000127 0  250000 160000.0000000143 0  250000 150000.0000000159 0  250000 140000.0000000175 0  250000 130000.0000000191 0  250000 119999.9999999916 0  250000 109999.9999999825 0  250000 99999.99999998408 0  250000 89999.99999998568 0  250000 79999.99999998725 0  250000 69999.99999998885 0  250000 59999.99999999045 0  250000 49999.99999999205 0  250000 39999.99999999366 0  250000 29999.99999999526 0  250000 19999.9999999968 0  250000 9999.999999998399 0  135172.4137931034 0 -137.9310344827583  130344.8275862069 0 -275.8620689655166  125517.2413793104 0 -413.7931034482749  120689.6551724138 0 -551.7241379310333  115862.0689655173 0 -689.6551724137912  111034.4827586208 0 -827.5862068965494  106206.8965517242 0 -965.5172413793075  101379.3103448277 0 -1103.448275862066  96551.72413793117 0 -1241.379310344824  91724.13793103464 0 -1379.310344827582  86896.5517241381 0 -1517.24137931034  82068.96551724157 0 -1655.172413793098  77241.37931034504 0 -1793.103448275856  72413.79310344851 0 -1931.034482758614  67586.20689655196 0 -2068.965517241373  62758.62068965542 0 -2206.896551724131  57931.03448275886 0 -2344.827586206889  53103.44827586231 0 -2482.758620689649  48275.86206896573 0 -2620.689655172408  43448.27586206916 0 -2758.620689655167  38620.68965517257 0 -2896.551724137927  33793.103448276 0 -3034.482758620686  28965.51724137944 0 -3172.413793103445  24137.93103448287 0 -3310.344827586204  19310.34482758629 0 -3448.275862068963  14482.7586206897 0 -3586.206896551723  9655.172413793145 0 -3724.137931034482  4827.586206896551 0 -3862.068965517241  0 4999.999999999225 -4000  0 9999.999999998096 -4000  0 14999.99999999756 -4000  0 19999.99999999726 -4000  0 24999.99999999649 -4000  0 29999.99999999545 -4000  0 34999.99999999351 -4000  0 39999.99999999275 -4000  0 44999.99999999197 -4000  0 49999.9999999912 -4000  0 54999.99999999042 -4000  0 59999.99999998965 -4000  0 64999.99999998888 -4000  0 69999.99999998808 -4000  0 74999.99999998731 -4000  0 79999.99999998655 -4000  0 84999.99999998577 -4000  0 89999.99999998501 -4000  0 94999.99999998423 -4000  0 99999.99999998347 -4000  0 104999.9999999827 -4000  0 109999.9999999819 -4000  0 114999.9999999811 -4000  0 119999.9999999804 -4000  0 124999.9999999824 -4000  0 130000.0000000079 -4000  0 135000.0000000178 -4000  0 140000.000000017 -4000  0 145000.0000000163 -4000  0 150000.0000000155 -4000  0 155000.0000000147 -4000  0 160000.000000014 -4000  0 165000.0000000132 -4000  0 170000.0000000124 -4000  0 175000.0000000116 -4000  0 180000.0000000109 -4000  0 185000.0000000101 -4000  0 190000.0000000093 -4000  0 195000.0000000085 -4000  0 200000.0000000078 -4000  0 205000.000000007 -4000  0 210000.0000000062 -4000  0 215000.0000000054 -4000  0 220000.0000000047 -4000  0 225000.0000000039 -4000  0 230000.0000000031 -4000  0 235000.0000000024 -4000  0 240000.0000000016 -4000  0 245000.0000000008 -4000  138499.992698711 4754.026372277331 0  137093.2670052012 9536.639699345635 0  135699.8836753657 14323.17697982435 0  134242.0997113028 19090.39455387465 0  132631.3534429766 23807.82160930602 0  130751.3712685147 28423.75111080412 0  128562.4170940472 32902.44582968431 0  126285.2564027428 37336.77035579942 0  123661.3951409534 41572.18842203188 0  120466.1639654971 45392.17900234455 0  116742.7600150611 48701.57094013265 0  112599.2779558244 51459.89351581372 0  108052.7620132346 53498.30186482816 0  103362.6013075687 55186.61489180412 0  98626.9445524631 56744.1075396087 0  93895.10465571457 58313.07723732995 0  89213.61083253716 60025.29196098565 0  84659.98679375931 62049.90630856762 0  80423.72342827682 64664.16689082998 0  77079.46520597988 68320.91799726382 0  75401.03926413733 72984.18687963787 0  75132.31546441223 77953.39118957664 0  75517.79269400188 82922.72841733029 0  75994.12798690467 87884.97931497527 0  76141.03644053877 92865.72190814259 0  75577.6917399208 97812.27627089612 0  74056.71099135675 102551.9930892217 0  71898.80264107142 107043.8044784894 0  69421.09707510214 111369.0872951042 0  66791.23439747586 115604.1050970619 0  64120.91357323291 119813.8417572768 0  61505.46198361652 124057.7414488965 0  59050.55973913459 128395.9995763311 0  56903.24970482702 132893.1998504455 0  55303.81367464051 137609.8368688517 0  54543.69409163466 142530.9149478115 0  54488.96440186739 147512.6695308264 0  54974.77359561732 152472.3067464133 0  55867.62888085351 157375.8602543657 0  57059.2217642535 162216.0105874235 0  58457.1304431001 167000.9860755429 0  59967.68958253603 171751.8163324134 0  61481.85702780542 176501.4740946017 0  63249.74457712872 181161.0445509208 0  65477.30866714627 185617.8308927955 0  68245.7959420751 189759.2433519008 0  71520.4315061924 193514.3385976385 0  75350.61144867241 196685.7937683813 0  79773.17101542671 198974.8606729538 0  84378.90699153654 200882.4207250944 0  88911.60265377768 202954.8336515224 0  93435.45084417483 205047.09581866 0  98032.2666486997 206976.2210864664 0  102616.0836544937 208935.8107130805 0  107113.0495121478 211085.573258506 0  111372.3937621359 213667.5068784722 0  114843.2448044628 217203.7046179156 0  116698.1230832934 221806.0799432901 0  117775.060870244 226673.1998860401 0  119571.7838315423 231305.7208116875 0  122475.2761019627 235353.0279900247 0  125742.3595464658 239117.4724032586 0  129161.5121633181 242745.2442007751 0  132614.792595325 246340.7012191151 0  250000 250000 -8921.902778285936  250000 250000 -19170.47581238532  250000 250000 -30942.99472097832  250000 250000 -44466.06850109496  250000 230769.2307692338 -60000  250000 211538.4615384677 -60000  250000 192307.6923077015 -60000  250000 173076.9230769353 -60000  250000 153846.1538461692 -60000  250000 134615.384615403 -60000  250000 115384.615384597 -60000  250000 96153.84615383085 -60000  250000 76923.07692306468 -60000  250000 57692.30769229849 -60000  250000 38461.53846153233 -60000  250000 19230.76923076616 -60000  250000 0 -44466.06850109696  250000 0 -30942.99472111472  250000 0 -19170.47581244904  250000 0 -8921.90277830635  232227.1661023966 0 -60000  216296.9260375522 0 -60000  202018.2515568125 0 -60000  189219.9167941597 0 -60000  177748.4479527209 0 -60000  167466.2824799582 0 -60000  158250.1197834204 0 -60000  149989.4414908582 0 -60000  142585.1882295191 0 -60000  135948.5681760333 0 -60000  232227.1661023966 250000 -60000  216296.9260375522 250000 -60000  202018.2515568125 250000 -60000  189219.9167941597 250000 -60000  177748.4479527209 250000 -60000  167466.2824799582 250000 -60000  158250.1197834204 250000 -60000  149989.4414908582 250000 -60000  142585.1882295191 250000 -60000  135948.5681760333 250000 -60000  130000 244047.61904762 -60000  130000 238095.23809524 -60000  130000 232142.85714286 -60000  130000 226190.47619048 -60000  130000 220238.0952381 -60000  130000 214285.7142857199 -60000  130000 208333.3333333399 -60000  130000 202380.9523809599 -60000  130000 196428.5714285799 -60000  130000 190476.1904761999 -60000  130000 184523.8095238199 -60000  130000 178571.4285714399 -60000  130000 172619.0476190599 -60000  130000 166666.6666666799 -60000  130000 160714.2857142999 -60000  130000 154761.9047619199 -60000  130000 148809.5238095399 -60000  130000 142857.1428571599 -60000  130000 136904.7619047798 -60000  130000 130952.3809523998 -60000  130000 125000.0000000169 -60000  130000 119047.6190476054 -60000  130000 113095.2380
[...]
<PointData  Vectors="sample_post"> 
<DataArray  type="Float64"  Name="sample_post"  NumberOfComponents="3" format="ascii">4.0567170647881351e-01 1.1928203452942765e-01 -4.1530807639546245e-02  -7.0418970861144470e-01 -5.0646629756042305e-01 3.1226351516735096e-01  -3.7340648604388127e-02 2.1925398703285713e-02 -5.3118417601251966e-02  5.7711415342021344e-03 5.9804731385742375e-02 -1.1286073075140921e-01  -1.0358145567244098e-01 -1.7126572565450660e-01 -8.6664446273637718e-04  -8.9602350937530596e-03 -1.0326098643803405e-01 -1.6022825631483034e-01  -4.0419922378045023e-02 2.1844661561780779e-02 -5.1880572569090913e-02  2.5814274776137557e-03 5.7992454223558053e-02 -1.0930593389726388e-01  -3.5184478884833320e-01 -2.3083887999427863e-01 6.0682076711166899e-01  -2.3508177987646148e-01 -1.4516698501563016e-01 1.7864354550721051e-01  -6.3078772331749788e-01 -2.7496788197829586e-01 7.8674747186178340e-01  -5.8950217940917948e-01 -2.6748392467028714e-01 5.3081920992438758e-01  -1.0202619050425219e+00 -3.5618382644584767e-01 1.1501104164346694e+00  -1.4842961839660744e+00 -5.0563901182694893e-01 1.2629973862724244e+00  -7.8258012445750502e-01 -2.9082716918839518e-01 4.6443090599822379e-01  -1.3746276406799671e+00 -6.6595877931957681e-01 1.4370257202343091e+00  -1.7729925827643883e-01 -7.3722436845473152e-02 -9.6225028227420420e-02  -1.5084389520645769e+00 -7.3766872169447462e-01 1.4536150018828284e+00  -2.2122469528533049e-02 -1.0921362270801569e-02 -1.4791551289919566e-01  -1.2846204005085164e+00 -4.1944066777316424e-01 6.3012252770871635e-01  -6.2272888544488134e-02 4.7205929518795951e-03 -1.5348154303435430e-01  -2.1506775835533327e+00 -6.5838694846291979e-01 1.1702159173174558e+00  -1.7879976764142038e+00 -8.0720383069801016e-01 1.4152154723424399e+00  -1.7314424602814562e+00 -6.6329519300299211e-01 1.3152751631147583e+00  -2.0950271906186533e+00 -6.2246913064287490e-01 9.9421966605796985e-01  -8.4723962309876621e-01 -2.8164976700233313e-01 2.0230325850921449e-01  -2.0106932090145353e+00 -5.7646723658261523e-01 9.3394945192003920e-01  -1.4074609886202485e+00 -2.5466602817882217e-01 8.6837627112379367e-01  -1.9060493626749264e+00 -5.3095063304395351e-01 9.0678755761104290e-01  -1.3650949611141274e+00 -4.1363281986802447e-01 4.7117002309019568e-01  -1.3979910191672835e+00 -3.9740092535664745e-01 5.0823732224732554e-01  -3.7079463197128626e-01 -5.2795234531994889e-02 -7.8145549685290139e-02  -9.4218787135542081e-01 -2.6317868980282560e-01 2.0925066234148554e-01  -4.1018135769745606e-01 -7.8952648833758077e-02 2.2955154496370789e-01  -4.6183619690533328e-01 -9.6937539742692216e-02 2.3484111536418714e-01  -8.9465341011265576e-01 -2.3866123288295826e-01 3.0833942416680138e-01  -7.2208052800452371e-01 -1.9439226740089241e-01 1.7301553284336615e-01  -2.0932679504738333e-01 3.6577043210979709e-02 -1.4295387630528011e-01  -4.5466898652475618e-01 -7.7552509622073759e-02 -4.8516545645057862e-02  -3.4427808389886322e-01 -8.2944975699519169e-02 -2.4259886420980908e-02  -3.0638652112257203e-01 -3.9779223649129593e-02 -8.0631210783919327e-02  -3.7282650951299116e-02 -3.0432050480113663e-02 -1.2196019774699736e-01  -2.4349807014566555e-01 1.6915408097161765e-02 -1.3416775739493611e-01  -5.1977684672107539e-02 9.3657977991633001e-02 -1.5018436471183139e-01  -3.0925612536274103e-02 -2.5367836684571682e-02 -6.8090868128505955e-02  -5.7616918331410520e-02 -7.4681080926591481e-02 -3.0384551308777798e-02  -2.5595762244191952e-02 -1.2516008315197144e-01 -1.4599123569352640e-01  -7.0288620170913962e-01 -5.0322728336103961e-01 3.0831316397458230e-01  -7.0029249114029124e-01 -4.9455250079797392e-01 3.0383206072070190e-01  -6.9606881532740317e-01 -4.8072375538400530e-01 2.9746917449773130e-01  -6.8875066637407412e-01 -4.5903758901092612e-01 2.8949088157661473e-01  -6.7974107161028285e-01 -4.3149335618410478e-01 2.7818535053669030e-01  -6.6881592012278068e-01 -3.9759258503026879e-01 2.6309813051589714e-01  -6.5489952558112308e-01 -3.6028081830190872e-01 2.4542774700273676e-01  -6.3829491271979366e-01 -3.1900154121108287e-01 2.2490351152769503e-01  -6.1608099010442052e-01 -2.7351086581828743e-01 2.0158057333894178e-01  -5.8902379748575040e-01 -2.2797636800436155e-01 1.7574344722972240e-01  -5.5705475487675304e-01 -1.8352141848903686e-01 1.4942359733430569e-01  -5.1931638233855681e-01 -1.4339182888838020e-01 1.2043053366237665e-01  -4.7708501145641602e-01 -1.0912599315742420e-01 8.9795650005212113e-02  -4.3167069226296051e-01 -8.4893442766976759e-02 5.9112794551747998e-02  -3.8306944752514055e-01 -7.3456884097664654e-02 2.9354325415704652e-02  -3.3325089602505598e-01 -7.2692851270280703e-02 1.4518520910563359e-03  -2.8542900110938507e-01 -8.1316598455701786e-02 -2.5857916582779694e-02  -2.4015862991083339e-01 -9.6603868344644378e-02 -4.9683757677443298e-02  -1.9889953379714939e-01 -1.1598526149005126e-01 -7.0381861972217699e-02  -1.6313039946687227e-01 -1.3468633362472074e-01 -8.8404103987106533e-02  -1.3238157194906303e-01 -1.5019576992289296e-01 -1.0362570406901339e-01  -1.0702558508227895e-01 -1.6305123529456983e-01 -1.1648655054372931e-01  -8.5968970960801791e-02 -1.6970313757256167e-01 -1.2615780448736397e-01  -6.9234260981867815e-02 -1.7071725143341743e-01 -1.3351579876033332e-01  -5.5751387999791922e-02 -1.6501322127353407e-01 -1.3897228916423551e-01  -4.3375572077729040e-02 -1.5565243462040762e-01 -1.4167971615252375e-01  -3.3034229334641646e-02 -1.4101244552901618e-01 -1.4476646201146759e-01  5.0358835608800088e-03 6.0226584756708799e-02 -1.1147445658063018e-01  3.4218035911248307e-03 5.9979798238083797e-02 -1.1181690104915208e-01  1.2239917046544754e-03 6.2405108935307665e-02 -1.1337041300951023e-01  2.3161866957058371e-04 6.6452242126629771e-02 -1.1511977892890443e-01  -2.8613977776441543e-03 7.2271944003883121e-02 -1.1774614143864819e-01  -5.5064848637870903e-03 7.7290315380889596e-02 -1.2005815407641349e-01  -6.9951243470210301e-03 8.3160190458232752e-02 -1.2123478823916782e-01  -1.0319945158097655e-02 8.6214950607060928e-02 -1.2322149104130152e-01  -1.2722858821079350e-02 8.8174255338251212e-02 -1.2555919230278087e-01  -1.5624843336494039e-02 8.9161376434820486e-02 -1.2695765016702962e-01  -1.7653882169698466e-02 8.9592823838046690e-02 -1.2626301028322109e-01  -1.9534752758268083e-02 8.6858532833700763e-02 -1.2395593785691603e-01  -2.0671792653724461e-02 8.3809591636667569e-02 -1.2132001246808560e-01  -2.1522253218235168e-02 8.0911317600628904e-02 -1.1716132176211339e-01  -2.2940046616188255e-02 7.6660758814243057e-02 -1.1199688075945259e-01  -2.4885522081842422e-02 7.1724498691577418e-02 -1.0435200741985631e-01  -2.6744923003317989e-02 6.4956974730272815e-02 -9.6737239356114363e-02  -2.8367151199538108e-02 5.6309162575481297e-02 -8.9542767904519732e-02  -3.0031713296602543e-02 4.9648222400616088e-02 -8.2186407939038003e-02  -3.2423622950631267e-02 4.2607632021617756e-02 -7.3671686465016054e-02  -3.5136461506311639e-02 3.6311126981801022e-02 -6.7276218474094415e-02  -3.6522977124994006e-02 3.0404876692680521e-02 -6.1599756570874006e-02  -3.6607469996300858e-02 2.6209304234693347e-02 -5.7247010430249969e-02  -3.7531217263473166e-02 2.3805767674954622e-02 -5.3328231275243561e-02  -5.2407632303418758e-02 -8.3751740916196624e-02 -3.0719092685256577e-02  -4.5880601260262679e-02 -9.2130804155683491e-02 -3.2232708153662804e-02  -3.6280545471295986e-02 -1.0009392958754534e-01 -3.2816699352563088e-02  -2.6840113255103264e-02 -1.0800905966083404e-01 -3.3468621828959190e-02  -1.6860435887428867e-02 -1.1643323822204879e-01 -3.5171912929619305e-02  -2.6970296912535918e-03 -1.2436316118658224e-01 -3.7091780234346727e-02  1.2295010937788847e-02 -1.3053577712428036e-01 -4.0156576253182308e-02  2.8513036252780066e-02 -1.3557977881543087e-01 -4.3169655522310134e-02  4.6163776980811339e-02 -1.3922927152216291e-01 -4.6690262346345018e-02  6.5617840685542064e-02 -1.4038650722784723e-01 -4.9848283476029265e-02  8.5389136453116132e-02 -1.3994825263713426e-01 -5.2849946449472170e-02  1.0727801252369909e-01 -1.3820223540133361e-01 -5.5905775231258677e-02  1.3060925266527107e-01 -1.3328449721075705e-01 -5.8963538529230447e-02  1.5474143897820108e-01 -1.2578587847222661e-01 -6.1597633487994977e-02  1.7950416366120978e-01 -1.1513213871220157e-01 -6.3196939890285117e-02  2.0445828412644179e-01 -1.0003258432140869e-01 -6.3156120267708921e-02  2.2906270322856639e-01 -8.3165505209950696e-02 -6.2141714374765476e-02  2.5250937791949712e-01 -6.3726899220702377e-02 -6.0021018124429379e-02  2.7564556498031245e-01 -4.1583964831368031e-02 -5.8987537088676552e-02  2.9653479320752468e-01 -1.8676619147320151e-02 -5.6089025251089886e-02  3.1650760303260184e-01 5.6311491556126437e-03 -5.3538146970829488e-02  3.3472430142995213e-01 2.8761131649625463e-02 -5.1592389833124495e-02  3.5139400749613769e-01 5.1335246221868150e-02 -4.9264194708483991e-02  3.6586775980120295e-01 7.0724216290392244e-02 -4.7682517644399153e-02  3.7781342808809365e-01 8.9047976209812751e-02 -4.6786501961747530e-02  3.8729063431287819e-01 1.0194435736971509e-01 -4.5297171470872956e-02  3.9717366734236970e-01 1.1128116700735864e-01 -4.4015869997842738e-02  4.0338220698585336e-01 1.1676643449229684e-01 -4.2879907106746690e-02  4.0812120925533379e-01 1.2727971307823030e-01 -3.9347898167352860e-02  4.1317454919110758e-01 1.4399844657308289e-01 -3.4729000712776840e-02  4.2377508519683887e-01 1.7093761114629977e-01 -2.8783407017331022e-02  4.4077687801073867e-01 2.1065322517627588e-01 -2.0651672249270701e-02  4.6125116579979292e-01 2.5772539253731958e-01 -1.0478643146644243e-02  4.8778382016488059e-01 3.1738013371323992e-01 5.2479127468819803e-03  5.1766841126521568e-01 3.8636398557255985e-01 2.6492473891656623e-02  5.4995564360860050e-01 4.6511718078758657e-01 5.3586793957564056e-02  5.8561027688776168e-01 5.4963145694000182e-01 8.3131903397865456e-02  6.2045690441140233e-01 6.4303565875446056e-01 1.1897109945006165e-01  6.5578346450241987e-01 7.4004591749218762e-01 1.5956497261850586e-01  6.9294845639850622e-01 8.3594216200951788e-01 2.0445810200848061e-01  7.2493068128536275e-01 9.2244087945030129e-01 2.5569704435934948e-01  7.5044078548514825e-01 9.9851940139294071e-01 3.1276855216923993e-01  7.6620195641199684e-01 1.0577210541660906e+00 3.7634748004475455e-01  7.7273586045213638e-01 1.1021026177093354e+00 4.4456692673797926e-01  7.6851286185510248e-01 1.1293839315651690e+00 5.1724205524229749e-01  7.5278740700567692e-01 1.1360555240510417e+00 5.9657954453501627e-01  7.2030478370668605e-01 1.1199559234299257e+00 6.7720179768255073e-01  6.7819063334056595e-01 1.0884832702373466e+00 7.5564574184799194e-01  6.3052889932696143e-01 1.0487281210621366e+00 8.3246447748495722e-01  5.7759394623597327e-01 1.0093242944099949e+00 8.9597132991049422e-01  5.2570412627811181e-01 9.6950695900625150e-01 9.5559490065745289e-01  4.7741045916786579e-01 9.3655564419647996e-01 9.9885189659486484e-01  4.2581818039263891e-01 9.0405000681866765e-01 1.0336212499153081e+00  3.5715022569437005e-01 8.7248427606311540e-01 1.0601776324919079e+00  2.7774818137542800e-01 8.4334710912757593e-01 1.0773745305942142e+00  1.6056445454443830e-01 8.0243731635376792e-01 1.0847932553661204e+00  2.1030004892063206e-02 7.5770938796084231e-01 1.0871753763247867e+00  -1.3902659480147930e-01 7.0749570890273772e-01 1.0848696080051490e+00  -3.0455051381504095e-01 6.4624705885990130e-01 1.0725696070347748e+00  -4.6462362334705976e-01 5.7986854115132314e-01 1.0537365297816834e+00  -5.8709468300622192e-01 4.9886753613720880e-01 1.0167617988672670e+00  -6.9131099337147828e-01 4.1122065338737729e-01 9.7403332508427265e-01  -7.4042933756290341e-01 3.0381497608497443e-01 9.1746230346712798e-01  -7.6040107263822365e-01 1.8663641351662999e-01 8.5291438308136469e-01  -7.4649321247555056e-01 6.1079906471324406e-02 7.8361292775316149e-01  -7.2584352304760258e-01 -6.4629451375634236e-02 7.1405146772247929e-01  -6.9349496643759811e-01 -1.8299770215306543e-01 6.4651531793450934e-01  -6.6905322488331909e-01 -2.8667975352481745e-01 5.8264482654671168e-01  -6.5327925792217978e-01 -3.7072250994363609e-01 5.2592930425257522e-01  -6.4338960332435813e-01 -4.3858436807658663e-01 4.7563276304529772e-01  -6.4449392913005599e-01 -4.7944517116782648e-01 4.3472679596854669e-01  -6.5279282822625695e-01 -5.0340525069073572e-01 3.9909511254420171e-01  -6.6459082244135126e-01 -5.1477767066127578e-01 3.7061823759863260e-01  -6.7718778060892659e-01 -5.1770259858940348e-01 3.4851450857335037e-01  -6.8984743036501095e-01 -5.1590927244209639e-01 3.3141465789900293e-01  -6.9831573231477440e-01 -5.1224470560906488e-01 3.2131770945904148e-01  -7.0222625611908474e-01 -5.0933848985731167e-01 3.1542578294570772e-01  -5.5796911174443159e-02 -7.5473052973436275e-02 -3.1373103661351480e-02  -5.2773222361937849e-02 -7.3567743363701116e-02 -3.4033570351023439e-02  -4.9790698995231503e-02 -6.7995747513717744e-02 -3.7370350472434172e-02  -4.5784897713210586e-02 -6.0263290295189023e-02 -4.2707582819130938e-02  -4.1375017978936411e-02 -5.0308533769450013e-02 -4.9412594082847754e-02  -3.5399388601988636e-02 -3.9328577754296198e-02 -5.8560299325415739e-02  -2.7304863134709968e-02 -2.7607521400136129e-02 -6.8351254937472058e-02  -1.7650053467315650e-02 -1.5484982869106909e-02 -7.9656048318559089e-02  -7.2565618821744783e-03 -5.7017134960092837e-03 -9.2648800613593832e-02  6.4449759852723033e-03 5.7396075402279579e-04 -1.0603908450459577e-01  2.2090458741673733e-02 3.5212069354922217e-03 -1.1892927530457259e-01  4.0682093311384067e-02 -9.4556898132836377e-04 -1.2990471548884205e-01  6.2002153212900611e-02 -9.2981135537732809e-03 -1.3877505113741914e-01  8.4583553497275837e-02 -2.1688953631403256e-02 -1.4517658770881173e-01  1.0760774489739995e-01 -3.8606065053311128e-02 -1.4672577590809782e-01  1.2448767743447176e-01 -5.7529016603223140e-02 -1.3970611573056496e-01  1.3710248851166038e-01 -7.1780477242596105e-02 -1.2578618923574617e-01  1.3341912786481941e-01 -8.3071450740621888e-02 -9.8002630019622547e-02  1.1399093137796672e-01 -7.6077170168056929e-02 -5.4720741278450773e-02  6.3450132543880683e-02 -4.4937334431000918e-02 7.9144284207517176e-03  -3.9196328984787664e-02 -1.4744129079828161e-02 8.9759438719303475e-02  -1.8418635734486499e-01 1.2521126405755856e-02 1.8707034194892797e-01  -3.7172229458327166e-01 1.8389242737671875e-02 2.9892011022524267e-01  -5.9550690821793084e-01 1.8815232767646374e-03 4.2950738671996586e-01  -8.4936405042215302e-01 -3.5802852494901873e-02 5.8270667968719692e-01  -1.1052625951044244e+00 -9.6431224002060029e-02 7.5364599576163283e-01  -1.3347189871744467e+00 -1.9358619186187195e-01 9.3045945582719314e-01  -1.4904676671070385e+00 -3.1430372874203455e-01 1.0881054046128082e+00  -1.5685967038245276e+00 -4.8644382711304157e-01 1.2183545919089644e+00  -1.5439760811118222e+00 -6.4165279834515243e-01 1.3074200944325203e+00  -1.4668442790761591e+00 -7.6289578423332671e-01 1.3718319448400933e+00  -1.2930521430723654e+00 -7.2384203188453311e-01 1.3931378712700666e+00  -1.0379192419989203e+00 -6.0945816608350500e-01 1.3760184582495401e+00  -7.3778922753041254e-01 -4.4077760895506751e-01 1.3310373352064675e+00  -4.8164527405604740e-01 -2.8202802465924304e-01 1.2673115980776910e+00  -3.0771629513756787e-01 -1.4712231669514278e-01 1.1973392440910413e+00  -2.0150192156913616e-01 -4.7105214575635795e-02 1.1179915355795838e+00  -1.2939394422389719e-01 1.0676043438217254e-02 1.0223362291977465e+00  -7.4597055897374046e-02 2.4219017454922699e-02 9.1752417899773231e-01  -4.0557785438030153e-02 9.0063011420145871e-03 8.0825228388962289e-01  8.7102768639329611e-03 -2.3751521787958932e-02 6.8882624252716240e-01  4.4411242528993269e-02 -8.8351935819042021e-02 5.7416146708686266e-01  3.0493737111098759e-02 -1.5524024120698207e-01 4.7437432722290057e-01  -1.7553681160145815e-02 -1.7614633220838855e-01 3.8403353321478689e-01  -5.8313418383608276e-02 -1.6020005202503640e-01 3.0089864298323293e-01  -8.7947877760466628e-02 -1.0485216408866259e-01 2.1887405079202030e-01  -9.4563577549318129e-02 -4.4619990653887144e-02 1.4186404746840012e-01  -8.8136880294998332e-02 6.0920124981332722e-04 7.2988605049718755e-02  -6.9627573286580369e-02 2.8947814464945359e-02 1.1612520723294099e-02  -4.9496986036343581e-02 4.2486296839176638e-02 -4.0213844618287191e-02  -3.3073393512559307e-02 4.0222487046345130e-02 -8.2539904142998249e-02  -1.9629952250412086e-02 2.7623433332523747e-02 -1.1455260405173015e-01  -1.3071659886147691e-02 6.3860846685269866e-03 -1.3461503685315432e-01  -1.0291537068503786e-02 -1.5254614253264843e-02 -1.4999942099971530e-01  -1.0629531729044015e-02 -3.6887924635889920e-02 -1.5810982791432523e-01  -1.5007997245841644e-02 -5.9000740481483134e-02 -1.6059426162010326e-01  -2.0563626817710810e-02 -7.9811586121259256e-02 -1.5834256331620047e-01  -2.7333584877218525e-02 -1.0046521937164456e-01 -1.5444702182054049e-01  -3.5962673692845878e-02 -1.1968471750431868e-01 -1.4989175477265507e-01  -4.1683570532183245e-02 -1.3533214582949887e-01 -1.4650465671695420e-01  -4.2399239104799750e-02 -1.4362171601075777e-01 -1.4476458912474283e-01  -4.0342793671714908e-02 -1.4575703576530397e-01 -1.4435691591941638e-01  -3.5651301731050584e-02 -1.4223064983422901e-01 -1.4473244670769059e-01  -3.0278220058860984e-02 -1.3511750017948412e-01 -1.4560650076564638e-01  5.3148615069356746e-03 5.9431095223881139e-02 -1.1245486653113035e-01  5.4230589536487152e-03 6.0162607946409923e-02 -1.1185294689865474e-01  5.5906556983715133e-03 5.9103620531185702e-02 -1.1039277044173576e-01  4.3229299677047268e-03 5.9191988285074187e-02 -1.1046899232859256e-01  3.3686326826037789e-03 6.0740324682908957e-02 -1.1022670170919029e-01  -4.6282317756441294e-04 6.8318454321288358e-02 -1.1481175296414976e-01  -5.6964861850540317e-03 7.9813322607529921e-02 -1.2010778039063452e-01  -8.5036806217621969e-03 8.8558318956389145e-02 -1.2493737828102811e-01  -1.1371543325857627e-02 9.4414572597501301e-02 -1.2689058722681582e-01  -1.4096088138434036e-02 9.2650110681799513e-02 -1.2678334911011063e-01  -1.7737413574686622e-02 8.6825911326911601e-02 -1.2263148376441045e-01  -2.1163474403737302e-02 7.7981294611288207e-02 -1.1034788487277666e-01  -2.5535998982287325e-02 6.6657963430486106e-02 -9.5329253317969168e-02  -2.9780387919538052e-02 5.2596348233179512e-02 -8.1561845500274052e-02  -3.5152429798543466e-02 3.5644350785218055e-02 -6.5942935658819618e-02  -3.8468502222953858e-02 2.5299859972885207e-02 -5.5810404020769748e-02  -4.0802427430572247e-02 2.3559701538152570e-02 -5.1991216931333545e-02  -3.9004204514868558e-02 2.3638719028144066e-02 -5.1665261954750658e-02  -3.8478154281869556e-02 2.2617783727517656e-02 -5.3952584574321012e-02  -3.8341302483997752e-02 2.2029057680776069e-02 -5.3610140307751075e-02  -4.1143340654610894e-02 2.0018367389601215e-02 -5.1440342060032430e-02  -4.6657258183388950e-02 1.3753704732234813e-02 -4.8931932103418493e-02  -5.5748843702958781e-02 4.4850904541247159e-03 -4.4947813860997603e-02  -6.6878659900772602e-02 -1.0107772119619671e-02 -3.8440373451277543e-02  -7.8777552572889528e-02 -2.9566018063795246e-02 -2.9867593839585073e-02  -8.9979952412832132e-02 -5.0978723991243979e-02 -2.1308808047795013e-02  -9.7990506384042303e-02 -7.5033576285658474e-02 -1.3487396586822969e-02  -1.0387219494310584e-01 -1.0363805333350766e-01 -6.9713987346203335e-03  -1.0611574737460318e-01 -1.2828468280218275e-01 -2.8792842774052639e-03  -1.0572221895560548e-01 -1.5396337334686216e-01 -8.3952600627157262e-04  3.2297862562019768e-03 5.7670009963118343e-02 -1.1258202917102304e-01  3.6520324159675711e-03 5.4243289372056580e-02 -1.1795478920555069e-01  2.8401459589949898e-03 4.8359318021985544e-02 -1.2415042061570880e-01  2.5578386347682052e-03 3.9168118640879941e-02 -1.3086488125861237e-01  2.8011424923336773e-03 2.4931707946049545e-02 -1.3582368487418339e-01  1.5255246584666825e-03 5.1446300475367227e-03 -1.4378482641072468e-01  1.3595451025710801e-03 -1.5749218645976306e-02 -1.4901796849857959e-01  1.1003805260623655e-03 -3.9649730313556300e-02 -1.5