<?xml version="1.0"?>
<VTKFile type="UnstructuredGrid"  version="0.1"  >
<UnstructuredGrid>
<Piece  NumberOfPoints="8385" NumberOfCells="35823">
<Points>
<DataArray  type="Float64"  NumberOfComponents="3"  format="ascii">0 0 -4000  0 250000 -4000  250000 0 0  250000 250000 0  130000 0 -60000  130000 250000 -60000  250000 0 -60000  250000 250000 -60000  72147.7 166878.6 0  86225.3 177671.7 0  72082.2 161278 0  80407.60000000001 166683.7 0  66765.10000000001 151053.8 0  70533.5 147695.4 0  88829.10000000001 164696.8 0  62768.1 132621.8 0  114956.1 180662.6 0  63924.4 130258.4 0  156213.5 216508.7 0  94617.8 155302.3 0  144307.5 195630.5 0  87231.39999999999 141931.8 0  68256.5 121278.3 0  69835.5 115711.4 0  95984.2 132464.1 0  116918.1 151520.9 0  96139.8 122416.1 0  78677.39999999999 102260.8 0  93451.5 115391.6 0  111847.4 131476.2 0  107207 116320.3 0  142564.4 147908.4 0  121370.1 121838.1 0  82154.39999999999 83011.2 0  84152.3 84289.39999999999 0  99259 96094.39999999999 0  106151.5 94923 0  159682.5 139591.9 0  136050.5 110604.8 0  111591.5 84279.10000000001 0  126001.6 88238.2 0  105758.7 68122.8 0  151826.4 109709.5 0  197157.2 140577 0  129859.4 33265.4 0  140000 0 0  136000 250000 0  4857.142857142332 250000 -3857.142857142872  9714.285714284615 250000 -3714.285714285747  14571.42857143168 250000 -3571.42857142848  19428.57142857481 250000 -3428.571428571329  24285.71428571539 250000 -3285.714285714253  29142.85714285597 250000 -3142.857142857177  33999.99999999657 250000 -3000.000000000101  38857.14285713715 250000 -2857.142857143025  43714.28571427773 250000 -2714.285714285949  48571.42857141832 250000 -2571.428571428873  53428.57142855891 250000 -2428.571428571797  58285.71428569948 250000 -2285.714285714721  63142.85714284007 250000 -2142.857142857645  67999.99999998066 250000 -2000.000000000569  72857.14285712125 250000 -1857.142857143493  77714.28571426184 250000 -1714.285714286416  82571.42857140242 250000 -1571.428571429341  87428.571428543 250000 -1428.571428572265  92285.71428568359 250000 -1285.714285715189  97142.85714282417 250000 -1142.857142858113  101999.9999999648 250000 -1000.000000001036  106857.1428571053 250000 -857.1428571439606  111714.2857142459 250000 -714.2857142868847  116571.4285713865 250000 -571.4285714298085  121428.5714285271 250000 -428.5714285727327  126285.7142856677 250000 -285.7142857156564  131142.8571428107 250000 -142.8571428585083  250000 240000.0000000016 0  250000 230000.0000000032 0  250000 220000.0000000048 0  250000 210000.0000000064 0  250000 200000.0000000079 0  250000 190000.0000000095 0  250000 180000.0000000111 0  250000 170000.0000000127 0  250000 160000.0000000143 0  250000 150000.0000000159 0  250000 140000.0000000175 0  250000 130000.0000000191 0  250000 119999.9999999916 0  250000 109999.9999999825 0  250000 99999.99999998408 0  250000 89999.99999998568 0  250000 79999.99999998725 0  250000 69999.99999998885 0  250000 59999.99999999045 0  250000 49999.99999999205 0  250000 39999.99999999366 0  250000 29999.99999999526 0  250000 19999.9999999968 0  250000 9999.999999998399 0  135172.4137931034 0 -137.9310344827583  130344.8275862069 0 -275.8620689655166  125517.2413793104 0 -413.7931034482749  120689.6551724138 0 -551.7241379310333  115862.0689655173 0 -689.6551724137912  111034.4827586208 0 -827.5862068965494  106206.8965517242 0 -965.5172413793075  101379.3103448277 0 -1103.448275862066  96551.72413793117 0 -1241.379310344824  91724.13793103464 0 -1379.310344827582  86896.5517241381 0 -1517.24137931034  82068.96551724157 0 -1655.172413793098  77241.37931034504 0 -1793.103448275856  72413.79310344851 0 -1931.034482758614  67586.20689655196 0 -2068.965517241373  62758.62068965542 0 -2206.896551724131  57931.03448275886 0 -2344.827586206889  53103.44827586231 0 -2482.758620689649  48275.86206896573 0 -2620.689655172408  43448.27586206916 0 -2758.620689655167  38620.68965517257 0 -2896.551724137927  33793.103448276 0 -3034.482758620686  28965.51724137944 0 -3172.413793103445  24137.93103448287 0 -3310.344827586204  19310.34482758629 0 -3448.275862068963  14482.7586206897 0 -3586.206896551723  9655.172413793145 0 -3724.137931034482  4827.586206896551 0 -3862.068965517241  0 4999.999999999225 -4000  0 9999.999999998096 -4000  0 14999.99999999756 -4000  0 19999.99999999726 -4000  0 24999.99999999649 -4000  0 29999.99999999545 -4000  0 34999.99999999351 -4000  0 39999.99999999275 -4000  0 44999.99999999197 -4000  0 49999.9999999912 -4000  0 54999.99999999042 -4000  0 59999.99999998965 -4000  0 64999.99999998888 -4000  0 69999.99999998808 -4000  0 74999.99999998731 -4000  0 79999.99999998655 -4000  0 84999.99999998577 -4000  0 89999.99999998501 -4000  0 94999.99999998423 -4000  0 99999.99999998347 -4000  0 104999.9999999827 -4000  0 109999.9999999819 -4000  0 114999.9999999811 -4000  0 119999.9999999804 -4000  0 124999.9999999824 -4000  0 130000.0000000079 -4000  0 135000.0000000178 -4000  0 140000.000000017 -4000  0 145000.0000000163 -4000  0 150000.0000000155 -4000  0 155000.0000000147 -4000  0 160000.000000014 -4000  0 165000.0000000132 -4000  0 170000.0000000124 -4000  0 175000.0000000116 -4000  0 180000.0000000109 -4000  0 185000.0000000101 -4000  0 190000.0000000093 -4000  0 195000.0000000085 -4000  0 200000.0000000078 -4000  0 205000.000000007 -4000  0 210000.0000000062 -4000  0 215000.0000000054 -4000  0 220000.0000000047 -4000  0 225000.0000000039 -4000  0 230000.0000000031 -4000  0 235000.0000000024 -4000  0 240000.0000000016 -4000  0 245000.0000000008 -4000  138499.992698711 4754.026372277331 0  137093.2670052012 9536.639699345635 0  135699.8836753657 14323.17697982435 0  134242.0997113028 19090.39455387465 0  132631.3534429766 23807.82160930602 0  130751.3712685147 28423.75111080412 0  128562.4170940472 32902.44582968431 0  126285.2564027428 37336.77035579942 0  123661.3951409534 41572.18842203188 0  120466.1639654971 45392.17900234455 0  116742.7600150611 48701.57094013265 0  112599.2779558244 51459.89351581372 0  108052.7620132346 53498.30186482816 0  103362.6013075687 55186.61489180412 0  98626.9445524631 56744.1075396087 0  93895.10465571457 58313.07723732995 0  89213.61083253716 60025.29196098565 0  84659.98679375931 62049.90630856762 0  80423.72342827682 64664.16689082998 0  77079.46520597988 68320.91799726382 0  75401.03926413733 72984.18687963787 0  75132.31546441223 77953.39118957664 0  75517.79269400188 82922.72841733029 0  75994.12798690467 87884.97931497527 0  76141.03644053877 92865.72190814259 0  75577.6917399208 97812.27627089612 0  74056.71099135675 102551.9930892217 0  71898.80264107142 107043.8044784894 0  69421.09707510214 111369.0872951042 0  66791.23439747586 115604.1050970619 0  64120.91357323291 119813.8417572768 0  61505.46198361652 124057.7414488965 0  59050.55973913459 128395.9995763311 0  56903.24970482702 132893.1998504455 0  55303.81367464051 137609.8368688517 0  54543.69409163466 142530.9149478115 0  54488.96440186739 147512.6695308264 0  54974.77359561732 152472.3067464133 0  55867.62888085351 157375.8602543657 0  57059.2217642535 162216.0105874235 0  58457.1304431001 167000.9860755429 0  59967.68958253603 171751.8163324134 0  61481.85702780542 176501.4740946017 0  63249.74457712872 181161.0445509208 0  65477.30866714627 185617.8308927955 0  68245.7959420751 189759.2433519008 0  71520.4315061924 193514.3385976385 0  75350.61144867241 196685.7937683813 0  79773.17101542671 198974.8606729538 0  84378.90699153654 200882.4207250944 0  88911.60265377768 202954.8336515224 0  93435.45084417483 205047.09581866 0  98032.2666486997 206976.2210864664 0  102616.0836544937 208935.8107130805 0  107113.0495121478 211085.573258506 0  111372.3937621359 213667.5068784722 0  114843.2448044628 217203.7046179156 0  116698.1230832934 221806.0799432901 0  117775.060870244 226673.1998860401 0  119571.7838315423 231305.7208116875 0  122475.2761019627 235353.0279900247 0  125742.3595464658 239117.4724032586 0  129161.5121633181 242745.2442007751 0  132614.792595325 246340.7012191151 0  250000 250000 -8921.902778285936  250000 250000 -19170.47581238532  250000 250000 -30942.99472097832  250000 250000 -44466.06850109496  250000 230769.2307692338 -60000  250000 211538.4615384677 -60000  250000 192307.6923077015 -60000  250000 173076.9230769353 -60000  250000 153846.1538461692 -60000  250000 134615.384615403 -60000  250000 115384.615384597 -60000  250000 96153.84615383085 -60000  250000 76923.07692306468 -60000  250000 57692.30769229849 -60000  250000 38461.53846153233 -60000  250000 19230.76923076616 -60000  250000 0 -44466.06850109696  250000 0 -30942.99472111472  250000 0 -19170.47581244904  250000 0 -8921.90277830635  232227.1661023966 0 -60000  216296.9260375522 0 -60000  202018.2515568125 0 -60000  189219.9167941597 0 -60000  177748.4479527209 0 -60000  167466.2824799582 0 -60000  158250.1197834204 0 -60000  149989.4414908582 0 -60000  142585.1882295191 0 -60000  135948.5681760333 0 -60000  232227.1661023966 250000 -60000  216296.9260375522 250000 -60000  202018.2515568125 250000 -60000  189219.9167941597 250000 -60000  177748.4479527209 250000 -60000  167466.2824799582 250000 -60000  158250.1197834204 250000 -60000  149989.4414908582 250000 -60000  142585.1882295191 250000 -60000  135948.5681760333 250000 -60000  130000 244047.61904762 -60000  130000 238095.23809524 -60000  130000 232142.85714286 -60000  130000 226190.47619048 -60000  130000 220238.0952381 -60000  130000 214285.7142857199 -60000  130000 208333.3333333399 -60000  130000 202380.9523809599 -60000  130000 196428.5714285799 -60000  130000 190476.1904761999 -60000  130000 184523.8095238199 -60000  130000 178571.4285714399 -60000  130000 172619.0476190599 -60000  130000 166666.6666666799 -60000  130000 160714.2857142999 -60000  130000 154761.9047619199 -60000  130000 148809.5238095399 -60000  130000 142857.1428571599 -60000  130000 136904.7619047798 -60000  130000 130952.3809523998 -60000  130000 125000.0000000169 -60000  130000 119047.6190476054 -60000  130000 113095.2380
[...]
<PointData  Vectors="sample_post"> 
<DataArray  type="Float64"  Name="sample_post"  NumberOfComponents="3" format="ascii">4.0955992777722000e-01 1.2393188287601570e-01 -3.6252508924763061e-02  -7.0466032713948434e-01 -4.9962950045001348e-01 3.0073949954503332e-01  -4.0352096200995821e-02 2.4595982446055271e-02 -4.8474695470245278e-02  1.1977234017708615e-03 6.3109200257663728e-02 -1.0874963369884540e-01  -1.0505724992501864e-01 -1.7492180925360348e-01 -1.1155841780125437e-03  -8.6039729817904802e-03 -1.0300911154689323e-01 -1.5948815276622680e-01  -4.1940001985251600e-02 2.3577009629778278e-02 -4.5360888977941625e-02  -3.9450560617964019e-04 6.0880861953383270e-02 -1.0877392027614717e-01  -3.5145594481669956e-01 -2.3043732475377415e-01 6.0547355353754972e-01  -2.3657511003685455e-01 -1.4485035303603536e-01 1.7552041766077311e-01  -6.3049229796953132e-01 -2.7391165006447515e-01 7.8596716921881604e-01  -5.8901756067388888e-01 -2.6758229332745770e-01 5.2907487233992001e-01  -1.0196619365935273e+00 -3.5595453426362872e-01 1.1512081833055767e+00  -1.4838451983492766e+00 -5.0483975329777142e-01 1.2643050840102978e+00  -7.8296934436076460e-01 -2.9186705247367156e-01 4.6255219187606356e-01  -1.3752752764542671e+00 -6.6661163677538626e-01 1.4395292795427450e+00  -1.7859578683597666e-01 -7.4177834256628147e-02 -9.7831468436293770e-02  -1.5092998233371306e+00 -7.3864910965895969e-01 1.4564945772710256e+00  -2.4027368258758543e-02 -1.0149005090160854e-02 -1.4935662041753139e-01  -1.2851685127858095e+00 -4.1957397947228281e-01 6.2875337224134242e-01  -6.4269438200823648e-02 3.9878383457066669e-03 -1.5547868395299430e-01  -2.1511518020252169e+00 -6.5832777268989917e-01 1.1702817081450305e+00  -1.7870113484800798e+00 -8.0813687004297108e-01 1.4200913703990259e+00  -1.7298115140239720e+00 -6.6322333505905418e-01 1.3209975483415550e+00  -2.0948300524806074e+00 -6.2281748611447374e-01 9.9381460906532337e-01  -8.4760996142248546e-01 -2.8266396709012048e-01 2.0389336855743270e-01  -2.0098665269882163e+00 -5.7646971918815726e-01 9.3480456687599478e-01  -1.4065872318333612e+00 -2.5355777428504273e-01 8.7231296685559623e-01  -1.9051275182119078e+00 -5.3088619005190751e-01 9.0822520424593156e-01  -1.3644273176227280e+00 -4.1339450907592368e-01 4.7103654282590507e-01  -1.3969451709937823e+00 -3.9751317323446050e-01 5.0920396012316682e-01  -3.7118503788090995e-01 -5.2694927417872801e-02 -7.7567789732933115e-02  -9.4203639145986773e-01 -2.6273079054607290e-01 2.0790439540171876e-01  -4.0878675698896783e-01 -7.9151460313642411e-02 2.3267910862487190e-01  -4.6077118840467457e-01 -9.7077979228827438e-02 2.3802616005383440e-01  -8.9170459824538328e-01 -2.3768770784688020e-01 3.1068870317271868e-01  -7.1954842939793517e-01 -1.9415868585834398e-01 1.7493710588062586e-01  -2.0939364601449398e-01 3.7080179841901748e-02 -1.4090664714166773e-01  -4.5261085435819864e-01 -7.7313151050522888e-02 -4.8506648964741779e-02  -3.4139718484989257e-01 -8.2025587579981241e-02 -2.2950331475327507e-02  -3.0296693957089343e-01 -3.7754732217032801e-02 -7.8214924265619268e-02  -3.4118997078101745e-02 -3.0146173225860821e-02 -1.1912927374420941e-01  -2.4113003070418490e-01 1.6246108005414064e-02 -1.3281320044976466e-01  -5.2070207773933515e-02 9.5162939452512613e-02 -1.4656467537467055e-01  -2.8643037613114392e-02 -2.5040585005681595e-02 -6.7227939396964337e-02  -5.8609253719766843e-02 -7.7678926419887842e-02 -2.8724993395852352e-02  -2.7810750048476784e-02 -1.2525627679625601e-01 -1.4827068399180887e-01  -7.0326922400498526e-01 -4.9522702488286602e-01 2.9697163995889353e-01  -7.0037434363577378e-01 -4.8625425580904741e-01 2.9104686818720626e-01  -6.9530672980304653e-01 -4.7200532019527552e-01 2.8499836496827646e-01  -6.9015829044019561e-01 -4.5284987363505913e-01 2.7615470644675855e-01  -6.8211951823035266e-01 -4.2820610471057002e-01 2.6435603646674743e-01  -6.7093504484899869e-01 -3.9647574559075183e-01 2.4937574030295523e-01  -6.5646365743048440e-01 -3.5920677270247603e-01 2.3296761643213237e-01  -6.3822523834279954e-01 -3.1758236322701677e-01 2.1404129682075790e-01  -6.1567548142246664e-01 -2.7127656182567805e-01 1.9242371155742885e-01  -5.8915060626111604e-01 -2.2418704093258579e-01 1.6798204045691334e-01  -5.5654805859707268e-01 -1.8037628016345161e-01 1.4171698003391822e-01  -5.1966739913387638e-01 -1.4015429782779493e-01 1.1442536953513371e-01  -4.7700449333199563e-01 -1.0725440973465124e-01 8.5422984360052107e-02  -4.3186082523333652e-01 -8.3922226181353171e-02 5.6111703647862832e-02  -3.8297110600697493e-01 -7.2777037505309783e-02 2.7057367343284403e-02  -3.3466544958699529e-01 -7.1616728283241907e-02 -6.7432520161329911e-04  -2.8715075157772219e-01 -7.9559918545997907e-02 -2.7050264649457565e-02  -2.4223159189915122e-01 -9.5065106414947600e-02 -5.1424733237011036e-02  -1.9979848533920544e-01 -1.1493968294835594e-01 -7.3374295854789648e-02  -1.6306707968745024e-01 -1.3326333630518467e-01 -9.2471007825567608e-02  -1.3332687749753933e-01 -1.4903299966932385e-01 -1.0755426028218540e-01  -1.0638554581489720e-01 -1.6039044083128998e-01 -1.1888085449366431e-01  -8.4346104150811910e-02 -1.6643077272641876e-01 -1.2762475928022682e-01  -6.7254408787263104e-02 -1.6815838776200720e-01 -1.3532189399084255e-01  -5.3272102639901599e-02 -1.6297208855580911e-01 -1.4120682336025869e-01  -4.2440536762629488e-02 -1.5412797237976444e-01 -1.4540668167491827e-01  -3.4124966629639868e-02 -1.4104586986495618e-01 -1.4758770734813628e-01  2.3827399620078237e-03 6.3984949094034377e-02 -1.0852601706996948e-01  1.6609880362147686e-03 6.4756125752668883e-02 -1.0851610880397318e-01  3.3429955803450601e-04 6.7296254659442306e-02 -1.0978800551879610e-01  -1.4422897293198923e-03 7.1028118104366919e-02 -1.1321811486728260e-01  -3.2965073845987064e-03 7.4790688411826178e-02 -1.1505275721338533e-01  -6.3329855320998531e-03 7.9091551943264074e-02 -1.1700990000514054e-01  -8.5860777989925953e-03 8.4015060923546256e-02 -1.2002934082112289e-01  -1.0760985668422689e-02 8.6392232261877228e-02 -1.2129462690172695e-01  -1.3186614660647279e-02 8.8483415791409364e-02 -1.2181929571640644e-01  -1.5798371596678587e-02 8.9364814401692125e-02 -1.2149359225024108e-01  -1.6210352615780989e-02 8.8710697467218602e-02 -1.2265321989432083e-01  -1.7494573319613658e-02 8.6085393736749893e-02 -1.1975515836943360e-01  -1.8211452448060057e-02 8.4867084462957071e-02 -1.1672957984212619e-01  -2.0177332929741106e-02 8.1615276196470854e-02 -1.1245037896579506e-01  -2.1551063933555405e-02 7.6620819045178826e-02 -1.0771611934196304e-01  -2.2555712521382703e-02 7.1560517879243599e-02 -1.0000388548770389e-01  -2.4544718105758877e-02 6.5432032192237255e-02 -9.3455211687774181e-02  -2.7525586672171226e-02 5.7583415548641326e-02 -8.5494278990450215e-02  -3.0556290370851533e-02 5.0505171348180035e-02 -7.8583681352358714e-02  -3.2297027654951731e-02 4.3308976736813380e-02 -7.0628114643404641e-02  -3.5193896994148668e-02 3.5901701429928407e-02 -6.4686607119262274e-02  -3.7224185350658280e-02 3.0309009801656756e-02 -5.7589555110966001e-02  -3.7886360964479358e-02 2.6222603747081512e-02 -5.2287729466749026e-02  -3.9501104148056708e-02 2.5239036089941692e-02 -4.9213477668805176e-02  -5.2397716201689405e-02 -8.6523210266149189e-02 -2.9419318083902409e-02  -4.5795974901382368e-02 -9.5633325081087850e-02 -2.9815129050856853e-02  -3.7416782176071757e-02 -1.0406202818145864e-01 -3.0663689114816411e-02  -2.7372586636468518e-02 -1.1234647249930692e-01 -3.0748336411908196e-02  -1.5078504867611862e-02 -1.1994289891398888e-01 -3.2605046978289094e-02  -1.6375012327450582e-03 -1.2650220874179843e-01 -3.4874475243953720e-02  1.3589371069117635e-02 -1.3235942714930218e-01 -3.7461240858134195e-02  3.0287097822581061e-02 -1.3779984238194673e-01 -4.0062741697549580e-02  4.8885184091383239e-02 -1.4149362661391957e-01 -4.2932395238763930e-02  6.8580602416911954e-02 -1.4394598154826890e-01 -4.5758091971060622e-02  8.8500259218353680e-02 -1.4490282862845444e-01 -4.7938154215717690e-02  1.1005278106657930e-01 -1.4212008618098193e-01 -5.1262026497425915e-02  1.3363503603588389e-01 -1.3671428728821630e-01 -5.3854882932819793e-02  1.5823647176896052e-01 -1.2781752181028511e-01 -5.5773442473612829e-02  1.8325393310241253e-01 -1.1730927639110503e-01 -5.7733939421984737e-02  2.0725994211403703e-01 -1.0366324915197712e-01 -5.8057574840546827e-02  2.3212337774721192e-01 -8.4825912662488637e-02 -5.8861987265415965e-02  2.5604989145748158e-01 -6.4793033890656118e-02 -5.7912894212880831e-02  2.7973475070249171e-01 -4.3239752890028689e-02 -5.5369191427130302e-02  3.0335436722991466e-01 -2.0098391769586464e-02 -5.1883321432048678e-02  3.2395330392521060e-01 4.1647379093323880e-03 -4.8359083340907522e-02  3.4227655619882924e-01 2.7095180805823925e-02 -4.5981706589781929e-02  3.5869005146586519e-01 4.9664549616472313e-02 -4.4609805049933914e-02  3.7377483177151810e-01 6.9497558769533507e-02 -4.1949827059408293e-02  3.8714601922172381e-01 8.7164353119678073e-02 -3.9384933107777437e-02  3.9757678289945381e-01 1.0126736026931867e-01 -3.6714293879362342e-02  4.0483079664483129e-01 1.1179274003377102e-01 -3.4406716873323459e-02  4.0747728878276218e-01 1.1882224064160467e-01 -3.4747952713991170e-02  4.1243337705985467e-01 1.3166510565461767e-01 -3.3993814968330788e-02  4.1912347885080403e-01 1.4704857658141723e-01 -2.9466843802601735e-02  4.3045555469904812e-01 1.7345264699812032e-01 -2.2811017336172908e-02  4.4788628110506346e-01 2.1449070944244747e-01 -1.2380015663639388e-02  4.6811061767505480e-01 2.6223399752249321e-01 1.3617625227400148e-03  4.9265992522980490e-01 3.2317784493276874e-01 1.8075196216403223e-02  5.1915254061445004e-01 3.9362489767217651e-01 3.6836244601563144e-02  5.4970160536293533e-01 4.7264891917653568e-01 6.0359973977014023e-02  5.8249455433520214e-01 5.5787279936358036e-01 8.8155127693385724e-02  6.1620572383013195e-01 6.4894905925187185e-01 1.2453883057315698e-01  6.5212803219829740e-01 7.4233311139319758e-01 1.6551726701599628e-01  6.8907984142207146e-01 8.3514855727213644e-01 2.1130550740183576e-01  7.2207578519672344e-01 9.2033646047625961e-01 2.6262402289386683e-01  7.4810391854730873e-01 9.9590690548639504e-01 3.2142958057548443e-01  7.6455255296514746e-01 1.0550267480982036e+00 3.8702080802502042e-01  7.7186858297832805e-01 1.1000250956584048e+00 4.5630785356822456e-01  7.6903592961076461e-01 1.1287523416043848e+00 5.2985124754002411e-01  7.5414753548313496e-01 1.1361006575186781e+00 6.0585763008062610e-01  7.2259013154045482e-01 1.1195704610810333e+00 6.8431073855341418e-01  6.8205161060793695e-01 1.0884888465344009e+00 7.6059949620740563e-01  6.3631333691105851e-01 1.0496186818286701e+00 8.3392142185890139e-01  5.8074405151388531e-01 1.0119633261661369e+00 8.9551362044613980e-01  5.2572447282692958e-01 9.7328026894965536e-01 9.5517177778946982e-01  4.7653092774886430e-01 9.4183472554868597e-01 9.9586625799427586e-01  4.2391045906661190e-01 9.0803131645621160e-01 1.0269344218771297e+00  3.5447213457470284e-01 8.7454971476227461e-01 1.0517999209690991e+00  2.7446903834570163e-01 8.4370013427509694e-01 1.0711350036414928e+00  1.5679469286648817e-01 8.0258514735042974e-01 1.0790713634698208e+00  1.6861378373706548e-02 7.6034908046387806e-01 1.0839426460231136e+00  -1.4304280115872806e-01 7.1203837984041196e-01 1.0803655011056139e+00  -3.0748725540456895e-01 6.5338015008727313e-01 1.0651227317674583e+00  -4.6625950886443396e-01 5.8846014470311370e-01 1.0441473294326733e+00  -5.8850915954313066e-01 5.0714995774978888e-01 1.0062199066547639e+00  -6.9190846252692373e-01 4.1838424438770255e-01 9.6341444512337271e-01  -7.4043023061571200e-01 3.1035441829382954e-01 9.0734751223721488e-01  -7.6222103691947318e-01 1.9326283216577209e-01 8.4386759350314022e-01  -7.4858898999835344e-01 6.8920543062920697e-02 7.7610560244242888e-01  -7.2682499829018066e-01 -5.4598140994431915e-02 7.0817564136882649e-01  -6.9372961054010152e-01 -1.6981137472885890e-01 6.3871901230529904e-01  -6.7072974981580913e-01 -2.7212336411547378e-01 5.7566965505153078e-01  -6.5273426934552325e-01 -3.5707730469970966e-01 5.1666337143565821e-01  -6.4378731901762654e-01 -4.2655704146661588e-01 4.6441240158783120e-01  -6.4576331584522817e-01 -4.6967992779040829e-01 4.2338023642273442e-01  -6.5204324131629143e-01 -4.9669635763997660e-01 3.8938078804320941e-01  -6.6366286256308760e-01 -5.0916146841267595e-01 3.5910701901447978e-01  -6.7617783052922831e-01 -5.1304081514871580e-01 3.3580775905763466e-01  -6.8835402762679609e-01 -5.1121078010385179e-01 3.2003388047469500e-01  -6.9724661587939185e-01 -5.0575721324634459e-01 3.1032744627465858e-01  -7.0212449508282904e-01 -5.0189349243703896e-01 3.0445402054187148e-01  -5.6780717440820430e-02 -7.9003973954689347e-02 -2.9795709037580310e-02  -5.4104704436100971e-02 -7.6484088053467972e-02 -3.2071351186483472e-02  -5.0666802073623063e-02 -7.0294435807734909e-02 -3.5719647663668544e-02  -4.6127161823227666e-02 -6.1859425356786582e-02 -4.1076489009826703e-02  -4.0966834661227663e-02 -5.1463042281001715e-02 -4.8591989805384907e-02  -3.4066896759941283e-02 -3.9524110908927289e-02 -5.6868355407508633e-02  -2.5079893413468855e-02 -2.7489410872790568e-02 -6.7451448858229152e-02  -1.5711361331289430e-02 -1.4430388537318196e-02 -7.9308658980992416e-02  -5.1909644829959776e-03 -4.6691543460198577e-03 -9.2017965259531445e-02  8.0635345748367882e-03 2.4625250320905491e-03 -1.0562286515929430e-01  2.4241577611296864e-02 5.3176217636470048e-03 -1.1837678060439452e-01  4.3186638480971415e-02 1.1205611371276221e-04 -1.2898647714102865e-01  6.4449711413854222e-02 -9.3450490844464093e-03 -1.3752301049233792e-01  8.6936446809779883e-02 -2.1741519329028361e-02 -1.4301423678552577e-01  1.0995186001268124e-01 -3.8499106889536339e-02 -1.4387234288722606e-01  1.2655161823663635e-01 -5.6846430379019805e-02 -1.3761631886977685e-01  1.3848530300407708e-01 -7.1410278357321236e-02 -1.2317142999480510e-01  1.3483731714241845e-01 -8.2829635308675695e-02 -9.4717577149509583e-02  1.1514523290032760e-01 -7.6275898845845611e-02 -5.0994677686529370e-02  6.4834144230490151e-02 -4.5236928563482812e-02 1.1979606261716440e-02  -3.7795531408962191e-02 -1.5596538218549517e-02 9.3666096839478102e-02  -1.8277374420495660e-01 1.1796058590712519e-02 1.8997839831593591e-01  -3.6949722713534894e-01 1.8038710504337571e-02 3.0174947845305794e-01  -5.9450077254033329e-01 8.0802315799291145e-04 4.3276092695393387e-01  -8.4816338166660299e-01 -3.6145716741491182e-02 5.8676665361988523e-01  -1.1039158920479462e+00 -9.5443868218950359e-02 7.5829559124708090e-01  -1.3337649417184363e+00 -1.9212716163652072e-01 9.3553045384062727e-01  -1.4897021685242180e+00 -3.1322529895751083e-01 1.0936722951119138e+00  -1.5675784810162936e+00 -4.8602982611205248e-01 1.2243776585697532e+00  -1.5425611200966485e+00 -6.4231861708937221e-01 1.3131195278967267e+00  -1.4660721533737870e+00 -7.6338066596522913e-01 1.3766524637050723e+00  -1.2933346481178578e+00 -7.2430597366946703e-01 1.3971810738965342e+00  -1.0384898762966752e+00 -6.1039932163103783e-01 1.3790072876668573e+00  -7.3783085878589338e-01 -4.4107061173188605e-01 1.3329242163127377e+00  -4.8173386561537185e-01 -2.8107066485685872e-01 1.2689488157802435e+00  -3.0875666560685011e-01 -1.4562068069597556e-01 1.1979736342762835e+00  -2.0211876402679368e-01 -4.6268303621060540e-02 1.1171062276152031e+00  -1.2961194145198737e-01 1.1380952998814958e-02 1.0215813493011250e+00  -7.4936281907766800e-02 2.3800887673817838e-02 9.1660616842708420e-01  -4.0510043338796459e-02 8.3787108858315012e-03 8.0628426977012646e-01  9.0682330144613386e-03 -2.3856329078949266e-02 6.8640896691401765e-01  4.4862834687044086e-02 -8.8013099418505505e-02 5.7099243826991086e-01  3.0512991581474500e-02 -1.5457585108347255e-01 4.7106878568185456e-01  -1.8633836052339450e-02 -1.7542601125596699e-01 3.8124822241011397e-01  -6.0199841028269821e-02 -1.6015240563126307e-01 2.9775272051809049e-01  -9.0584920589388093e-02 -1.0502498331055532e-01 2.1559727163118431e-01  -9.7241972799384152e-02 -4.4510917004910153e-02 1.3791874376074309e-01  -9.0525013252362466e-02 1.2329228069451277e-04 7.0212265371128360e-02  -7.1171132608592716e-02 2.8045625497827017e-02 8.6206923280335197e-03  -4.9167265571505844e-02 4.1592872490278938e-02 -4.4092943765982009e-02  -3.2626958934954216e-02 4.0015961869585705e-02 -8.7055348696950502e-02  -2.0243687749772289e-02 2.8126391138179573e-02 -1.1866270198860285e-01  -1.3641184096818993e-02 6.6233504946146046e-03 -1.3840674780848017e-01  -1.0897293508184580e-02 -1.5229161057172423e-02 -1.5301325872257882e-01  -1.2063786913654138e-02 -3.6514045723185673e-02 -1.6109601023964104e-01  -1.6500765254894464e-02 -5.9284213841516706e-02 -1.6390876158116965e-01  -2.2467401553620529e-02 -7.9269303364694135e-02 -1.6244795612582943e-01  -2.9590545826142626e-02 -9.9624987166718248e-02 -1.5902424713247185e-01  -3.7210706738400171e-02 -1.1847840274281925e-01 -1.5375772445452673e-01  -4.1292324563298580e-02 -1.3485387781939942e-01 -1.4951882044175155e-01  -4.1344003935930337e-02 -1.4275445169782866e-01 -1.4793200731542550e-01  -3.9775093707282980e-02 -1.4484137698723182e-01 -1.4763510830698948e-01  -3.6136717353764350e-02 -1.4213995380888125e-01 -1.4774412166054524e-01  -3.1779170386991039e-02 -1.3577649051834828e-01 -1.4833191053570505e-01  2.1569919984613301e-03 6.3096583637357734e-02 -1.0899251690580820e-01  3.4460191733987093e-03 6.3963475442540538e-02 -1.0722818088138673e-01  2.6914201131859631e-03 6.2752204486146143e-02 -1.0795940154243076e-01  1.4440939250302089e-03 6.2212413587251304e-02 -1.0745074499361716e-01  -4.0289517869583798e-04 6.5904854555052836e-02 -1.0986502305299438e-01  -2.7462807479471957e-03 7.4817563668856057e-02 -1.1284785477221640e-01  -5.1903455071386747e-03 8.3164599563854039e-02 -1.1545774996659687e-01  -8.3019023987691634e-03 9.0651377341294775e-02 -1.2306296093188170e-01  -1.0869218273806618e-02 9.3808268439819043e-02 -1.2568414405583536e-01  -1.4106395491390981e-02 9.1576190232722898e-02 -1.2400101433645765e-01  -1.6843924321855532e-02 8.5422640088488516e-02 -1.1761929766553278e-01  -1.8977184824781598e-02 7.7498857761933521e-02 -1.0564709745149858e-01  -2.3610837237875975e-02 6.5650517173039602e-02 -9.1552509947893226e-02  -2.9575013921925852e-02 5.0232581646345045e-02 -7.6741329847919593e-02  -3.6085903017446887e-02 3.4998045771568960e-02 -6.1292964514689074e-02  -4.0029955726579060e-02 2.6633577551481585e-02 -4.8415520182371150e-02  -4.1092140540126318e-02 2.3203561591760305e-02 -4.5305246726178229e-02  -4.1233017056678645e-02 2.2224590346080080e-02 -4.5639086923201011e-02  -4.0906987809474729e-02 2.3127747038772458e-02 -4.6878047465383543e-02  -4.0220962021575067e-02 2.4203318821390329e-02 -4.8037033580678526e-02  -4.4057075144040225e-02 2.0422057102448592e-02 -4.4660604270186095e-02  -5.0602737921412212e-02 1.1000233495946896e-02 -4.2572369778266360e-02  -5.9963897451373427e-02 -2.1584181874425299e-04 -3.9389576890610907e-02  -7.0928014681587118e-02 -1.4458068308019963e-02 -3.4600364445415192e-02  -8.0995864727219591e-02 -3.1362150471178386e-02 -2.7832906259002171e-02  -8.9095289669026176e-02 -5.2678600863332752e-02 -2.0012015675774777e-02  -9.7963117620562590e-02 -7.6664314379910198e-02 -1.2632191469961812e-02  -1.0347110151814293e-01 -1.0632018188409242e-01 -7.1589908665686472e-03  -1.0712945042465623e-01 -1.3193609418929894e-01 -2.7795250463134814e-03  -1.0684095795299307e-01 -1.5736469345803389e-01 -4.4574517287700849e-04  9.9848606659198608e-04 6.1478905206694016e-02 -1.1010231616077031e-01  6.1103595183777549e-05 5.7564412950321060e-02 -1.1460557753324181e-01  -1.6207381913467566e-03 5.1506396112264444e-02 -1.2132056033135338e-01  -6.7250352752208707e-04 3.9739410314990231e-02 -1.2952122220052700e-01  -1.2621509886315959e-03 2.5282565628335595e-02 -1.3617775129740908e-01  -1.4945123528165762e-03 5.1674174734389561e-03 -1.4429163229043651e-01  -2.4978246081793038e-03 -1.5837613025465453e-02 -1.5034694962495321e-01  -2.1953112817815249e-03 -3.9076091767588354