<?xml version="1.0"?>
<VTKFile type="UnstructuredGrid"  version="0.1"  >
<UnstructuredGrid>
<Piece  NumberOfPoints="3594" NumberOfCells="14547">
<Points>
<DataArray  type="Float64"  NumberOfComponents="3"  format="ascii">0 0 -4000  0 250000 -4000  250000 0 0  250000 250000 0  135000 0 -60000  135000 250000 -60000  250000 0 -60000  250000 250000 -60000  65308.5 173604.8 0  78441.2 185529.2 0  65707.89999999999 168017.6 0  73555.60000000001 174095.8 0  61257.8 157386.9 0  65291.6 154352.5 0  82112.3 172814.3 0  58804.1 138685.6 0  106822.8 190893.8 0  60152.4 136426.2 0  144960.9 230041.9 0  88660.10000000001 163931.9 0  134829.2 208246.3 0  82409 149993.8 0  65214.4 127836 0  67249.7 122418.9 0  91916.7 141284.3 0  125498.1 99698.5 0  111195.9 162013.4 0  92905.39999999999 131283.2 0  77176.5 109747.4 0  90809.3 124059.5 0  107806.1 141615.9 0  104439.5 126126.3 0  137051.8 160541 0  118095 132800.4 0  82238.39999999999 90851.5 0  84123.2 92291 0  98197.5 105309.4 0  105163 104713.8 0  154799.8 153672.9 0  133655.9 122823.1 0  111467 94557.3 0  106995.1 77971.8 0  149450.7 123239.8 0  192061 157764 0  133903.2 45232 0  140000 0 0  136000 250000 0  9714.285714284615 250000 -3714.285714285747  19428.57142857481 250000 -3428.571428571329  29142.85714285597 250000 -3142.857142857177  38857.14285713715 250000 -2857.142857143025  48571.42857141832 250000 -2571.428571428873  58285.71428569948 250000 -2285.714285714721  67999.99999998066 250000 -2000.000000000569  77714.28571426184 250000 -1714.285714286416  87428.571428543 250000 -1428.571428572265  97142.85714282417 250000 -1142.857142858113  106857.1428571053 250000 -857.1428571439606  116571.4285713865 250000 -571.4285714298085  126285.7142856677 250000 -285.7142857156564  250000 240000.0000000016 0  250000 230000.0000000032 0  250000 220000.0000000048 0  250000 210000.0000000064 0  250000 200000.0000000079 0  250000 190000.0000000095 0  250000 180000.0000000111 0  250000 170000.0000000127 0  250000 160000.0000000143 0  250000 150000.0000000159 0  250000 140000.0000000175 0  250000 130000.0000000191 0  250000 119999.9999999916 0  250000 109999.9999999825 0  250000 99999.99999998408 0  250000 89999.99999998568 0  250000 79999.99999998725 0  250000 69999.99999998885 0  250000 59999.99999999045 0  250000 49999.99999999205 0  250000 39999.99999999366 0  250000 29999.99999999526 0  250000 19999.9999999968 0  250000 9999.999999998399 0  130000 0 -285.714285714285  120000 0 -571.4285714285701  110000.0000000001 0 -857.1428571428546  100000.0000000001 0 -1142.857142857139  90000.00000000017 0 -1428.571428571424  80000.0000000002 0 -1714.285714285709  70000.00000000025 0 -1999.999999999993  60000.00000000026 0 -2285.714285714278  50000.00000000023 0 -2571.428571428565  40000.00000000019 0 -2857.142857142852  30000.00000000015 0 -3142.857142857139  20000.00000000009 0 -3428.571428571426  10000.00000000004 0 -3714.285714285713  0 9999.999999998096 -4000  0 19999.99999999726 -4000  0 29999.99999999545 -4000  0 39999.99999999275 -4000  0 49999.9999999912 -4000  0 59999.99999998965 -4000  0 69999.99999998808 -4000  0 79999.99999998655 -4000  0 89999.99999998501 -4000  0 99999.99999998347 -4000  0 109999.9999999819 -4000  0 119999.9999999804 -4000  0 130000.0000000079 -4000  0 140000.000000017 -4000  0 150000.0000000155 -4000  0 160000.000000014 -4000  0 170000.0000000124 -4000  0 180000.0000000109 -4000  0 190000.0000000093 -4000  0 200000.0000000078 -4000  0 210000.0000000062 -4000  0 220000.0000000047 -4000  0 230000.0000000031 -4000  0 240000.0000000016 -4000  134615.5786831678 8376.221222376078 0  129135.8381374389 16690.61556165003 0  123693.3119097638 25029.34528065769 0  118458.7304757098 33499.41630675747 0  114183.5561631282 42453.40693221996 0  117152.9012549134 51656.5775220433 0  109640.5189223821 56772.26946740811 0  99783.22349336625 58163.79074226946 0  89906.64048415456 59427.041153887 0  80231.83368741472 61714.93090982783 0  73457.07599492084 68333.04562829909 0  74666.1562536891 78126.62096439983 0  77477.57171300898 87678.05180735435 0  78461.83411646895 97534.63399308435 0  75049.04009726809 106816.2708870931 0  69538.50964765088 115103.6313494232 0  63598.75337311435 123095.8011052612 0  58118.08704720287 131402.6075281692 0  54672.56885839759 140685.5429709587 0  54507.01644649181 150612.6283068675 0  56360.01451579022 160386.8607035369 0  59277.85033353963 169905.2699317088 0  62638.60576621335 179274.2426304358 0  68212.99295126265 187459.3754999009 0  75814.40529046141 193858.3467082375 0  84761.00503602097 198204.6515231062 0  94061.92665129391 201734.182040823 0  103676.4565927747 204325.1412130333 0  112974.540309108 207830.3235759034 0  118972.4630267572 215380.3369922852 0  120264.8170507578 225241.997356352 0  123444.1757132735 234565.2722630062 0  129527.245366261 242435.1534677757 0  250000 250000 -9999.999999997535  250000 250000 -19999.99999997662  250000 250000 -29999.9999999377  250000 250000 -39999.99999995799  250000 250000 -49999.999999979  250000 240000.0000000016 -60000  250000 230000.0000000032 -60000  250000 220000.0000000048 -60000  250000 210000.0000000064 -60000  250000 200000.0000000079 -60000  250000 190000.0000000095 -60000  250000 180000.0000000111 -60000  250000 170000.0000000127 -60000  250000 160000.0000000143 -60000  250000 150000.0000000159 -60000  250000 140000.0000000175 -60000  250000 130000.0000000191 -60000  250000 119999.9999999916 -60000  250000 109999.9999999825 -60000  250000 99999.99999998408 -60000  250000 89999.99999998568 -60000  250000 79999.99999998725 -60000  250000 69999.99999998885 -60000  250000 59999.99999999045 -60000  250000 49999.99999999205 -60000  250000 39999.99999999366 -60000  250000 29999.99999999526 -60000  250000 19999.9999999968 -60000  250000 9999.999999998399 -60000  250000 0 -49999.99999997466  250000 0 -39999.99999999574  250000 0 -30000.00000007532  250000 0 -20000.00000005069  250000 0 -10000.00000002534  240416.6666666667 0 -60000  230833.3333333333 0 -60000  221250 0 -60000  211666.6666666667 0 -60000  202083.3333333333 0 -60000  192500 0 -60000  182916.6666666667 0 -60000  173333.3333333333 0 -60000  163750 0 -60000  154166.6666666667 0 -60000  144583.3333333333 0 -60000  240416.6666666667 250000 -60000  230833.3333333333 250000 -60000  221250 250000 -60000  211666.6666666667 250000 -60000  202083.3333333333 250000 -60000  192500 250000 -60000  182916.6666666667 250000 -60000  173333.3333333333 250000 -60000  163750 250000 -60000  154166.6666666667 250000 -60000  144583.3333333333 250000 -60000  135000 240000.0000000016 -60000  135000 230000.0000000032 -60000  135000 220000.0000000048 -60000  135000 210000.0000000064 -60000  135000 200000.0000000079 -60000  135000 190000.0000000095 -60000  135000 180000.0000000111 -60000  135000 170000.0000000127 -60000  135000 160000.0000000143 -60000  135000 150000.0000000159 -60000  135000 140000.0000000175 -60000  135000 130000.0000000191 -60000  135000 119999.9999999916 -60000  135000 109999.9999999825 -60000  135000 99999.99999998408 -60000  135000 89999.99999998568 -60000  135000 79999.99999998725 -60000  135000 69999.99999998885 -60000  135000 59999.99999999045 -60000  135000 49999.99999999205 -60000  135000 39999.99999999366 -60000  135000 29999.99999999526 -60000  135000 19999.9999999968 -60000  135000 9999.999999998399 -60000  9760.266420117418 0 -5952.053284023483  19520.53309387125 0 -7904.10661877425  29307.1102415074 0 -9718.421407375839  39104.7333719938 0 -11473.30036109216  48875.83924532436 0 -13369.19882213981  58571.87012930932 0 -15613.67939664691  68124.11986543986 0 -18408.53002372226  77527.76485865096 0 -21667.33907869995  86719.09466349281 0 -25482.98540480309  95631.92793098884 0 -29908.59492259344  104180.5528547143 0 -35003.66989024555  112449.6580983703 0 -40542.62450796275  120509.52686276 0 -46382.42388125008  127994.6878848568 0 -52930.54997290741  9760.266420117418 250000 -5952.053284023483  19520.53309387125 249999.9999999999 -7904.10661877425  29307.1102415074 250000 -9718.421407375839  39104.7333719938 250000 -11473.30036109216  48875.83924532436 250000 -13369.19882213981  58571.87012930932 250000 -15613.67939664691  68124.11986543986 250000 -18408.53002372226  77527.76485865096 250000 -21667.33907869995  86719.09466349281 250000 -25482.98540480309  95631.92793098884 250000 -29908.59492259344  104180.5528547143 250000 -35003.66989024555  112449.6580983703 250000 -40542.62450796275  120509.52686276 250000 -46382.42388125008  127994.6878848568 250000 -52930.54997290741  145499.999999982 250000 0  154999.999999964 250000 0  164499.999999946 250000 0  173999.999999928 250000 0  183499.99999991 250000 0  192999.9999998977 250000 0  202500.00000009 250000 0  212000.000000072 250000 0  221500.000000054 250000 0  231000.000000036 250000 0  240500.000000018 250000 0  240000.0000001065 0 0  230000.0000002129 0 0  220000.0000003194 0 0  210000.0000004258 0 0  200000.0000005323 0 0  190000.0000006387 0 0  180000.0000006325 0 0  170000.0000004744 0 0  160000.0000003162 0 0  150000.0000001582 0 0  81541.63335874674 35498.13281562441 -1158.202651726381  46004.68664141578 194254.3443995834 -2060.726341037222  32687.99629987251 175105.6839569158 -2219.415882311186  36663.59507600099 63079.34846719183 -2167.093431592842  52002.09530018299 134928.3526843132 -266.7613614382204  59599.13772899003 109177.3480854863 -691.4602217251189  13806.90843888927 84795.87142461444 -3288.608480833754  42042.1003123136 65482.76889364541 -1784.344992951069  85917.78356508871 211210.3489857896 -1084.187284676976  26344.15959288631 140617.4121347481 -2112.437398247788  49350.86723141051 36336.78604214006 -2272.704599832591  21702.40331646254 119880.0690882354 -2466.437976166102  57313.56589490068 220733.4025395545 -2090.49117424689  28866.73893404105 218351.493928639 -3037.311471166797  64300.33793173476 48969.94193502321 -1793.328299662734  52482.25996720623 28090.02703717845 -2196.191483315934  63095.9704402233 54899.2587271606 -1627.600015239288
[...]
<PointData  Vectors="sample_post"> 
<DataArray  type="Float64"  Name="sample_post"  NumberOfComponents="3" format="ascii">7.8359624174956788e-02 -3.2656768906085148e-01 8.8489811189031886e-01  7.7430519359970279e-02 -6.4950835650212468e-01 6.4483424689751390e-01  -3.5312517158628154e-01 5.9161167452020475e-03 3.4698088997319959e-01  1.7699853394216292e-01 2.0054887233638502e-01 -2.2161158875769099e-01  -5.9131280616425121e-02 -3.4633977999813131e-01 -2.4891440662194658e-01  2.5308337911671930e-01 -7.7682330238202188e-02 3.5519708622105467e-01  1.1255880619065593e-02 -4.2706958361687897e-01 -5.5820466510197542e-01  2.4878243723685620e-01 -3.3548110730322034e-01 5.4923123229612736e-01  2.1703372398244614e-01 1.3498662021364100e-01 -2.8841698310259185e-02  -5.3258501447796341e-02 -1.3799562224102604e-01 -1.6546864771215036e-01  2.8285016614691794e-01 9.2586017266257231e-02 -9.2202962532725682e-02  8.5226777513922880e-02 -2.6824160455963747e-01 -1.7748903614546027e-01  -1.5705268590263898e-02 9.9079571851980394e-02 -9.1623325453198914e-02  1.4108187868088048e-01 3.1217966069012320e-02 -3.8143452688634422e-01  -1.1761004669613150e-02 -5.9909223941348219e-02 -2.3282580741881036e-02  1.5059804505189392e-01 -5.7687940581688066e-02 3.5016108235075982e-01  9.8009265038770457e-02 2.2051307608720966e-01 2.2595496760821256e-02  1.6715909149311065e-01 -5.7320564361945089e-02 2.8999076205818797e-01  1.0930514890252285e-01 -1.6355087179469302e-01 7.4750967154480263e-02  6.1704546654809955e-02 -6.8370135803629647e-02 -1.4863147606808821e-01  9.7501558879552253e-02 1.2278735096260490e-01 7.8781781806827988e-02  -1.8074540765419553e-01 -5.8104458053290869e-02 -1.3514315373478872e-01  3.2194987057013416e-02 -6.9571370605892455e-02 1.1729509064960858e-01  8.1106917149706892e-04 -1.8323443646744528e-02 -4.3000794020043649e-02  2.3665508160438935e-02 2.3758765267961203e-02 -1.5179265263666036e-01  1.9327186125941243e-01 -1.4295387464003642e-01 -1.3529416870484598e-01  1.7901719716335412e-01 -5.3142267962181938e-02 -1.1339522866731505e-01  5.2460418225312140e-03 9.6465361746435135e-02 -1.3917801183615722e-01  -1.0694888217332469e-02 -4.5193257348220328e-02 1.5349424475442414e-01  1.9831075061318412e-01 1.9723893420422156e-01 -2.9006549607309656e-01  -8.0257859785566071e-02 7.8349786250738074e-02 -8.2989229264808548e-02  9.7027622033560842e-02 7.7307033282868670e-02 -2.2255881067263703e-01  1.1288471270665265e-01 1.5690509488767795e-01 1.2401215018921552e-02  2.0792867509572521e-01 -2.0778904211027571e-01 -6.0735016987236413e-02  -2.9977080940491596e-01 1.1825207491470967e-01 2.1100559030917860e-02  -3.2338609854941530e-01 -5.6136582161782328e-02 1.0082198265980991e-01  2.5007147665833940e-02 1.6320091898663827e-01 2.0622763348315928e-01  -4.2704907626708892e-03 -1.7990293519407549e-01 1.7890843819533656e-02  4.6169339913848549e-02 -1.4689405702425420e-01 7.4376160754687753e-02  2.3555929420729781e-02 -1.0855262849924961e-01 -1.5114980953307175e-01  2.9956353982436491e-02 -1.1363553875872107e-01 -4.6174395553135995e-02  9.1637281903675469e-02 -5.2582965135664177e-02 -2.6713982028191774e-01  1.4078475871123133e-01 -1.1165589994433012e-01 5.0629301407741543e-02  -7.8931822482931221e-02 -6.9870967375802824e-03 -1.6442675202118385e-02  -2.2035547743257122e-02 -1.0581575526602799e-01 1.9841465576873693e-01  8.0951379830907180e-02 -1.1254694734451633e-01 4.8502567045810524e-01  -2.9368423074177075e-01 -2.3511264456582490e-01 -1.6511192368761030e-01  -1.5440763637867425e-01 -6.2863254424234127e-01 -2.6542168776720518e-03  -4.1319474520990190e-01 -4.5574940712766498e-01 -2.2282973371815781e-02  -5.1006056419754819e-01 -1.2774888933535769e-01 2.5175109409234830e-01  -1.5288702382589983e-01 -6.1713382432769770e-01 1.9385536977750400e-02  1.9531394234393018e-01 -2.5976230704710268e-01 -1.0845337192981060e-02  1.8781829598358055e-01 -5.4944401360787176e-01 -3.0005085224201378e-01  6.9602868455652264e-02 6.0022582881037638e-03 -2.6287024520305713e-01  6.9262010837985832e-02 7.0533916275429986e-02 1.9030791264714708e-01  1.3072977163249819e-01 1.7593928921503177e-01 2.4479072013059830e-01  -2.3808318812678714e-01 -1.9831775289386486e-01 7.6195288284872792e-02  -3.1511197016381098e-01 1.5985875255582562e-02 9.9773258098985410e-03  -1.1515350033896696e-01 1.0997899377227355e-01 -1.3451403340672263e-01  -1.2392659584509752e-01 -2.0878348627659435e-01 1.9410906237564504e-01  9.8958138509109200e-02 2.9293301107632530e-01 -1.0821750998679285e-01  6.8123049072466940e-02 2.5219816377873516e-01 2.4287353644804435e-01  6.8071256361231158e-03 2.5009764884055552e-01 2.5633698934705779e-01  -2.7173538385394608e-01 1.5346847320600787e-01 4.0612529050779078e-01  1.7039406303186277e-01 1.2840334187612268e-01 -7.2266549657449317e-02  2.3669006597739362e-01 1.4823324419977535e-01 -2.6129301753153683e-01  1.3090623733346732e-01 -8.3121610185974165e-02 7.9113193100082330e-02  1.2328468637746801e-01 7.0452752074230116e-02 3.8905470464636993e-02  -1.2060238573373164e-01 1.2624235015288207e-01 -1.0996584851056335e-01  1.5732398931116034e-01 1.3397564621024885e-01 -5.6699527448798838e-02  1.3136923244108520e-01 -2.1381779182762831e-01 4.0376609495955854e-02  4.0717976794759858e-02 -9.9464630387543759e-02 7.0310555497241856e-02  3.3821790144415148e-01 1.6970732327901222e-01 1.0594203787331860e-01  1.4669173844428418e-01 2.6676375438351768e-01 -2.8975364097034101e-01  8.5478024850339618e-02 -2.4677531852945764e-01 8.3832725341887682e-02  3.3612617097729608e-01 -9.8335457187092828e-02 2.6159864827512136e-01  -1.0677895119562257e-02 -2.5131665854489921e-01 9.6064835450122774e-02  -3.1479578328900519e-02 -4.7154773991115112e-01 -6.4642139337539609e-02  1.4069023628579611e-01 -2.0695825548373337e-01 4.4695996272994641e-04  -1.3589468381814093e-01 -1.5930756625930273e-01 1.5820523391271962e-01  3.2845934641641605e-01 5.1419843489162245e-02 3.3951007597243493e-01  -2.3368855844886846e-01 1.7471186227605121e-01 -1.2119076304751192e-01  -9.4722557875474067e-02 6.0050722175623472e-01 -1.0561552449817635e-02  -2.4242815570397816e-01 -4.8138275536438570e-03 3.0995811373055665e-01  -2.6214496885391064e-01 8.8290512183217054e-02 9.1320445445211784e-02  3.6898455103096701e-02 -1.2198054159064817e-01 -4.1997374452182501e-01  1.7560438721525118e-01 4.8414699569368835e-01 1.0716162981964086e-02  -8.9948982425636953e-02 2.7695666205124997e-01 1.1156095372987737e-01  2.2320134598229024e-01 2.2699342527933053e-01 -1.0456200546031397e-01  -1.6049606362464755e-01 -6.4652382711831838e-02 9.0399856575932136e-02  1.2061031787657020e-01 2.6547653134737004e-01 -4.5160540452385760e-02  4.9465018423399600e-02 5.3062029525964705e-01 -1.6426694600502452e-02  5.6564166432211363e-02 5.2250859927246110e-02 2.4528718163194480e-01  -1.8058640063794301e-01 -1.3660442839886203e-01 -3.0116032461140935e-01  -3.3172709309451286e-02 -3.2826398473108959e-01 -2.4278937277477436e-01  6.5730488292751127e-03 -2.3888335658555390e-01 -1.0253856645323516e-01  3.2874498323913204e-01 -5.4184432743760080e-01 2.5799827695917299e-01  -1.2195345897904152e-01 5.7035985352320051e-01 -2.8880763799756776e-01  5.3158913371108563e-01 4.1353645944358114e-01 1.8424873997917116e-01  6.2050655459481752e-01 -1.9944903933514058e-01 8.2251982367868937e-01  6.9773791682836284e-01 -2.4762936353172524e-01 1.0137214976688347e-01  1.1458608083664669e-01 2.4326487361250521e-01 5.6105518277849709e-01  -2.9126637269065786e-01 2.3134510965259875e-01 5.4394932373840255e-01  -3.5610869732452599e-01 2.6341052603627346e-01 4.5434126350311389e-02  -3.8542636994156859e-01 3.2287343416780551e-01 -4.1457702173852978e-01  -8.7913632875253195e-02 3.7075098997533029e-01 -2.3864865603565052e-01  5.4920384406635570e-01 5.7438698764286922e-01 -5.3312884051815217e-02  6.5833544570571689e-01 -4.5124120058100375e-01 -7.0650598858744673e-01  -3.8472714351725673e-01 2.4356880813089032e-01 -2.6341075707588485e-01  2.5519522239905584e-02 1.0738308136792183e+00 -2.2310741698618597e-01  -4.3761609990496653e-01 -9.0411618444616912e-02 1.3073935231454857e-02  7.4518718953074964e-02 -4.1561827718781580e-01 -3.9746048740751794e-01  8.5939172629405230e-02 5.9297564064546193e-01 1.7664684829505350e-01  -2.4559049483437437e-01 9.6142815790945590e-01 -2.3038595342897331e-01  -2.9116320747412933e-01 7.2844507608102560e-01 -5.9857518381851027e-01  1.4104096986546358e-01 6.5557708314051444e-01 -9.8523985049630258e-01  4.8927931668557190e-01 -2.9404002399389267e-01 -3.9560456016549450e-01  5.8209106576099545e-01 -1.5735754461147242e-01 2.0523244648592970e-01  2.9357999683053715e-01 -1.4098378140513310e-01 -3.3991709941030085e-01  1.7244059657490426e-01 -2.5442600137837224e-01 -3.2208145339741939e-01  2.0495142908356384e-01 -4.3326094787400277e-01 -1.2372812382606162e-02  -2.2271312937601404e-02 3.9494825935137250e-02 -1.4981495620891155e-01  6.5925824568538502e-02 1.8750359230265107e-01 -5.0353036070246666e-02  8.3663687180537301e-03 -2.1779805797424008e-02 6.1405296254215133e-02  2.7087189433981250e-03 -2.3391322853403085e-01 2.4656676061833124e-01  1.1719256561179037e-01 -4.9771864622954166e-02 1.4692551135197787e-01  -1.0688794445975582e-01 8.8208449869912262e-02 -3.8217218476264095e-02  -1.3316643242863296e-01 1.3372609201464725e-01 -1.9836396238443407e-01  -1.5910579798913230e-01 2.9671103218727712e-01 1.0088870683311418e-01  1.0006598492063609e-01 1.1752085507934561e-01 -5.6627291275323170e-02  7.3846103636794780e-02 2.0030397201073639e-02 2.6762654919371198e-01  -1.3561426914752284e-01 -7.4377492006729329e-02 -9.7078016649143672e-02  -1.6472732116661687e-01 6.6142640278110218e-02 -1.5260967706924039e-01  -3.1981195612003072e-01 2.1192577035141269e-01 1.6086151028099305e-01  -1.3458683551445005e-01 1.4520529369512050e-01 2.2245886470290710e-01  -4.3121086624869624e-02 -9.2933604045386836e-02 4.7465264780172135e-02  -6.5211180824256379e-02 1.0661528082402576e-03 -1.9217300179101868e-01  -5.1650290821114789e-02 -9.7359854694470199e-02 -3.7922771918839429e-02  -4.8091926152925193e-02 -1.7979191828400717e-01 1.1660771046669564e-01  2.0179590439501940e-01 -2.2942189264709697e-02 3.2905794128203114e-01  1.5658554933518809e-02 1.0545120492631424e-01 1.7933063702774601e-01  1.5031725639806071e-01 8.2863751381847164e-02 -6.4477682513825282e-02  3.1426398338059769e-01 2.3150568636794153e-01 -8.3129986897925431e-02  3.8173817044497088e-01 1.0647144526268755e-01 1.0059860589894641e-01  6.4491332566698839e-02 -4.0063812369854063e-01 7.5733798166180227e-02  5.5736973767906338e-02 -1.7615472908073990e-01 -8.6903380538274316e-02  1.1300097905431468e-01 5.8206486776956411e-02 7.5469595716179616e-02  2.0167696827045570e-01 8.5448836736071579e-02 1.7855252101439661e-01  1.2410932229955404e-01 -7.4474255595980088e-02 1.5930679108487417e-01  1.7032148095502614e-01 -1.1218925095303975e-01 -1.6104507415147609e-01  2.4167403100067812e-02 -7.0588639086845262e-02 2.1001109001143423e-01  9.4066267893289882e-04 -1.8655599901981318e-01 8.6368294808095103e-02  -7.1841313870257467e-02 -2.5361202063071284e-02 1.1705498288992140e-01  -1.0108367270592984e-01 -2.3445204984190463e-01 -5.6128362040246869e-02  5.3289356647595407e-03 1.1286918034903053e-01 -3.2004628378812372e-01  2.5857286359777687e-01 8.7196223641124393e-02 -1.6439413920258861e-01  -4.7900277938321738e-02 -2.2250618710870051e-01 -3.8227017394186109e-02  -5.9630016704797040e-01 -3.6158495754932873e-01 2.1468293796422139e-01  1.2179428587160288e-01 -1.6437040807101216e-01 1.3466165176414185e-01  1.8479951900958588e-01 -1.0603068874779702e-01 3.7289011721773302e-01  -3.4548762674195224e-02 1.5550321536265688e-01 -1.7546747301338022e-02  -1.8521572107398429e-01 2.1909220017703117e-02 1.3986903409375434e-01  -1.2886140064221718e-01 -1.4741490873351448e-01 -8.2619577076388076e-02  1.6495192294096550e-01 4.6669666239451103e-02 2.8900290581971733e-01  -4.0290621666101534e-02 -5.1675854650737457e-02 -2.3686264414162145e-01  9.6698288809198146e-02 1.3490125065173933e-01 -1.7719237558325565e-01  2.8031317015183139e-03 6.5794766398783885e-02 -2.7235377247577924e-01  -1.1181784709940797e-01 3.0871948935114107e-02 -1.8750621509321243e-02  -2.4312114086909567e-01 -5.9149208809587482e-02 -1.1443352826532421e-01  2.0815717088507427e-01 1.5713840838078086e-01 9.0648985871502271e-04  -4.8024416510543760e-02 3.1202179623767168e-01 -1.7996291996613994e-01  -2.6434203993122574e-01 3.4886858377757457e-02 1.7760292125155813e-01  2.4902675885264050e-01 -2.1399836150498716e-01 8.8351461170336321e-01  3.2015865598825383e-01 -6.2335737280688905e-02 1.0066430625889507e-01  1.4775952511206350e-01 -3.3115002236383063e-02 -9.3136155532263301e-02  3.7457068940447225e-01 -1.8035688081320611e-01 -6.6375289528373321e-02  -1.4152991734938541e-01 1.7152993435959848e-01 -3.0753893216926585e-02  1.2363984329889858e-02 2.4425610012625429e-01 -1.7769441042985532e-01  -7.6629958816937696e-02 1.6092897945639867e-02 -1.3681504034365416e-01  3.1570999289387147e-01 1.4069952097441757e-01 4.1710069201824414e-02  8.5834799027224198e-02 6.9982412577756448e-02 2.2082352922636503e-01  3.2240859095037572e-02 1.3676691076283784e-01 1.5395482942688446e-01  1.3759625835089778e-01 -3.7778085224996488e-01 -3.5906342978961270e-01  1.0985922725865063e-01 -1.1907364665276449e-01 -4.6317507332689108e-04  -1.5103092891741285e-01 2.2490710326024546e-01 1.0781325724324593e-01  8.5587458068090191e-02 -1.0068087023641452e-01 -3.3615734552069948e-01  -2.8531841275995746e-02 2.0067551602774317e-01 -2.0620559935042185e-01  -1.6229276512526183e-01 3.3134711580056632e-02 -1.0385188939745224e-01  -2.2770150662409500e-01 -2.5106058123211056e-01 -2.2202702953862713e-01  -1.2000223994438421e-01 1.1225935549517180e-01 3.5389654945917737e-01  1.9297051403891770e-02 1.9086926925907088e-01 -1.4131055695304823e-01  -2.6718082798537440e-01 2.3548767707263288e-01 -5.5656146698240087e-02  -1.9472608223183921e-01 -1.8519064457980960e-01 -3.4560597438472690e-01  -5.9890891586346334e-02 1.4613581977707432e-01 -2.9034988800212080e-01  -1.9136422367319142e-01 5.1700776836154670e-02 3.7192072993655895e-01  -1.4914913728261614e-01 2.6860468749988231e-01 2.6847225461967006e-01  -7.1225913082819642e-02 6.1245412601462636e-02 1.3235317861383798e-02  6.3535659694170868e-02 7.0817173975793721e-02 1.6076071214444124e-01  -1.0405644080142870e-01 -8.6826060634895300e-02 -3.9257371528438112e-02  1.6431380589993050e-01 1.3491562713309449e-01 3.0989448869043473e-01  9.1446449471506944e-02 -3.1837258555055779e-02 1.2778714607347755e-01  -4.2050332009336822e-01 -1.7368179291681923e-01 9.5627352684340430e-02  1.6250559527438027e-01 -4.7655642657393171e-01 3.1778639654155359e-02  -1.0315025587339975e-01 -3.1485095552058445e-01 -2.0433834671139576e-02  2.3848640402394375e-01 1.2061713069680230e-01 -1.0496243077479221e-01  2.9667467843685619e-01 8.0126166766397638e-02 -3.0366199922040232e-01  -2.3032278960183300e-01 1.2024389101312701e-01 1.6507400465213029e-01  -5.9668258069480673e-01 9.9438006515491603e-02 -9.3572839340311159e-02  -7.6375144554411384e-02 -5.1488546423409630e-02 9.6732274557768547e-02  2.3147888162094096e-01 -5.4965702340198208e-02 3.7184343076099402e-01  2.8561017485831136e-01 -1.7346657168031746e-01 1.7483622566963213e-02  2.1672804067473705e-01 -6.6262978153639115e-02 -2.2099420437914227e-01  1.2702089482898787e-01 -6.7853271419059349e-02 -2.5857938786181472e-01  2.2401012074329801e-01 -4.8120210318724370e-02 3.1574877039138714e-02  -1.2448070251168919e-01 1.2674774505149847e-01 1.2300122699722761e-02  3.5322807502032633e-03 9.1849791893548846e-02 3.5072599062809337e-02  1.8652331857985843e-02 9.6474329617379593e-03 2.1321073871380353e-01  1.0456307700578073e-01 1.0198485123973169e-01 -1.9363578670694920e-01  2.2751687028743712e-02 2.6075769414823639e-02 2.4837061954966610e-02  -6.5890754373398100e-02 -7.3465369737836891e-02 2.1324668189768514e-01  5.9484532725369597e-02 -1.4188822628612199e-01 7.9715205827244145e-02  1.1809098943010761e-01 -1.1857651698115133e-01 -7.5805823820753650e-03  3.0814282315025237e-02 -1.8446120553290257e-01 -2.7657752410307556e-02  2.2391048149259865e-02 -4.0307774024025356e-02 1.3885450444069986e-01  2.4440694922174297e-01 9.8595790233220473e-02 3.6955155878191898e-01  1.7045812990085724e-01 2.5611757635913124e-01 1.0656589415877768e-01  1.7403585836467994e-01 1.5934687759646712e-01 -1.4402205550584340e-01  1.0293338401525402e-01 -1.9585075666210536e-01 7.2445108426488547e-02  -2.6997876779157867e-02 3.2125244165548940e-02 -4.6587881275552120e-02  1.5305873311103449e-01 1.1002560602524745e-01 -1.5831910240783703e-01  1.3826722353697690e-01 -2.0630305984881973e-02 -1.9142953799553514e-02  6.9007451704047387e-02 4.3736165233889401e-02 -4.6678405238419596e-02  -1.3533260759626253e-02 -1.0884949545164692e-01 9.9216470647540772e-02  -3.8765604038696055e-01 2.3044408034011282e-02 -1.6316022219547979e-01  2.9690612416726497e-01 -4.9246537362101245e-01 3.0379110754893990e-01  6.8266173911538108e-02 -2.2226610784795592e-01 -8.7804500451435535e-02  1.1750510294060697e-01 -3.1531388005324634e-01 -7.7047507984585623e-02  2.4834210012242581e-02 -1.5720436789317530e-01 -1.7441638312067051e-01  -1.6187864077022918e-01 3.4205089340483369e-01 -5.4396501236564448e-02  1.2780607763465404e-01 2.2318416674070363e-01 2.9658627736670512e-01  -1.5666741703347023e-01 -8.3704007712113615e-02 2.1503136069880702e-01  1.4938474111472172e-01 4.8243967182173345e-03 -2.6824848994181267e-02  1.3915880124140079e-01 -2.9443527950891801e-01 -1.2114301022517553e-01  -2.5652207746703698e-01 -2.0809009914695964e-01 3.5227799978515001e-01  -2.7260432653552685e-01 1.8682135038060085e-01 -1.3747575968887313e-01  -2.4642675361341421e-01 5.4229940379878563e-02 -2.7622436018636308e-02  -3.0014909627654818e-01 3.9166218818138060e-02 -4.0825985376022500e-01  -4.4956261829723549e-04 1.3268831364541020e-01 3.5155898349107650e-02  -1.2115749475015891e-01 -6.0345399813541334e-01 3.0857830945544694e-02  -4.7200087638636534e-01 -4.6308538187353404e-01 -1.4693111082692641e-02  -3.6861780648969855e-01 -2.9451583527548908e-01 1.5994694264083217e-01  -3.2942005706540928e-01 -5.0587806483389985e-01 2.0954550986693535e-01  -1.7010198374019064e-01 -3.1000977532268154e-01 -2.1235066692440838e-01  -2.1980325077294544e-02 -1.5630858316363497e-01 -7.1633636423069622e-02  -3.3937031889816283e-01 2.0099474472392678e-01 8.2179599775990361e-02  1.5093618433387222e-02 -1.3224195025087387e-01 3.6801795827040035e-01  9.3052888674807280e-02 1.1006435469685535e-01 4.0572596992169745e-02  -2.0800512852971645e-01 2.4388018134224351e-01 1.2369011014972400e-01  -6.9891428290400057e-02 -5.9424083739219632e-02 -3.1122239618939895e-01  -3.9716236764787839e-02 7.1077985063022417e-02 -5.5860106846128951e-02  6.0533758877372799e-02 -6.6334581779213378e-02 2.6421008432885940e-01  7.5974866696445736e-02 -4.2188491504962344e-02 4.9680323276051680e-02  4.6860872399467006e-02 -3.9098033266342630e-01 5.7466233000195183e-02  -4.0312405763888148e-01 -1.8375475439889388e-01 3.4389152844891718e-01  -5.9943433828030857e-02 3.2955139359903302e-01 3.9131548733787928e-02  -1.0928419640556651e-01 1.4795824443372710e-01 1.8934575055464958e-01  9.1271055523896250e-02 1.5102950187268976e-01 1.4620407500325153e-01  -1.0067078063218574e-01 1.1352365172650046e-01 -1.7819097892862696e-02  3.1085755487630574e-02 -2.1351642480573724e-01 4.1412816013202608e-01  6.3102537213713727e-01 -1.6406628350724292e-01 2.0433114407602948e-01  2.0016297510876538e-01 -2.9860957359937119e-02 -1.6927619739926775e-01  2.4696050269999795e-01 -2.1200044013247307e-01 2.9693336625961839e-02  -1.9633299128229603e-01 -7.3351432093581359e-02 3.6416088982692149e-02  9.0330979978213599e-02 5.8320937925706084e-02 1.0942770051239310e-01  -3.5540161294452854e-01 1.1534757500699916e-01 1.3113424458325848e-01  -2.4182731489451911e-01 2.2644823093207164e-01 3.3633754785187714e-01  -1.1590019612484118e-01 -2.3813338883264917e-01 1.9892919972286832e-01  1.0049731747919309e-01 -1.5160636966728444e-01 7.7905602513742912e-04  -2.1952690801203401e-01 