<?xml version="1.0"?>
<VTKFile type="UnstructuredGrid"  version="0.1"  >
<UnstructuredGrid>
<Piece  NumberOfPoints="8385" NumberOfCells="35823">
<Points>
<DataArray  type="Float64"  NumberOfComponents="3"  format="ascii">0 0 -4000  0 250000 -4000  250000 0 0  250000 250000 0  130000 0 -60000  130000 250000 -60000  250000 0 -60000  250000 250000 -60000  72147.7 166878.6 0  86225.3 177671.7 0  72082.2 161278 0  80407.60000000001 166683.7 0  66765.10000000001 151053.8 0  70533.5 147695.4 0  88829.10000000001 164696.8 0  62768.1 132621.8 0  114956.1 180662.6 0  63924.4 130258.4 0  156213.5 216508.7 0  94617.8 155302.3 0  144307.5 195630.5 0  87231.39999999999 141931.8 0  68256.5 121278.3 0  69835.5 115711.4 0  95984.2 132464.1 0  116918.1 151520.9 0  96139.8 122416.1 0  78677.39999999999 102260.8 0  93451.5 115391.6 0  111847.4 131476.2 0  107207 116320.3 0  142564.4 147908.4 0  121370.1 121838.1 0  82154.39999999999 83011.2 0  84152.3 84289.39999999999 0  99259 96094.39999999999 0  106151.5 94923 0  159682.5 139591.9 0  136050.5 110604.8 0  111591.5 84279.10000000001 0  126001.6 88238.2 0  105758.7 68122.8 0  151826.4 109709.5 0  197157.2 140577 0  129859.4 33265.4 0  140000 0 0  136000 250000 0  4857.142857142332 250000 -3857.142857142872  9714.285714284615 250000 -3714.285714285747  14571.42857143168 250000 -3571.42857142848  19428.57142857481 250000 -3428.571428571329  24285.71428571539 250000 -3285.714285714253  29142.85714285597 250000 -3142.857142857177  33999.99999999657 250000 -3000.000000000101  38857.14285713715 250000 -2857.142857143025  43714.28571427773 250000 -2714.285714285949  48571.42857141832 250000 -2571.428571428873  53428.57142855891 250000 -2428.571428571797  58285.71428569948 250000 -2285.714285714721  63142.85714284007 250000 -2142.857142857645  67999.99999998066 250000 -2000.000000000569  72857.14285712125 250000 -1857.142857143493  77714.28571426184 250000 -1714.285714286416  82571.42857140242 250000 -1571.428571429341  87428.571428543 250000 -1428.571428572265  92285.71428568359 250000 -1285.714285715189  97142.85714282417 250000 -1142.857142858113  101999.9999999648 250000 -1000.000000001036  106857.1428571053 250000 -857.1428571439606  111714.2857142459 250000 -714.2857142868847  116571.4285713865 250000 -571.4285714298085  121428.5714285271 250000 -428.5714285727327  126285.7142856677 250000 -285.7142857156564  131142.8571428107 250000 -142.8571428585083  250000 240000.0000000016 0  250000 230000.0000000032 0  250000 220000.0000000048 0  250000 210000.0000000064 0  250000 200000.0000000079 0  250000 190000.0000000095 0  250000 180000.0000000111 0  250000 170000.0000000127 0  250000 160000.0000000143 0  250000 150000.0000000159 0  250000 140000.0000000175 0  250000 130000.0000000191 0  250000 119999.9999999916 0  250000 109999.9999999825 0  250000 99999.99999998408 0  250000 89999.99999998568 0  250000 79999.99999998725 0  250000 69999.99999998885 0  250000 59999.99999999045 0  250000 49999.99999999205 0  250000 39999.99999999366 0  250000 29999.99999999526 0  250000 19999.9999999968 0  250000 9999.999999998399 0  135172.4137931034 0 -137.9310344827583  130344.8275862069 0 -275.8620689655166  125517.2413793104 0 -413.7931034482749  120689.6551724138 0 -551.7241379310333  115862.0689655173 0 -689.6551724137912  111034.4827586208 0 -827.5862068965494  106206.8965517242 0 -965.5172413793075  101379.3103448277 0 -1103.448275862066  96551.72413793117 0 -1241.379310344824  91724.13793103464 0 -1379.310344827582  86896.5517241381 0 -1517.24137931034  82068.96551724157 0 -1655.172413793098  77241.37931034504 0 -1793.103448275856  72413.79310344851 0 -1931.034482758614  67586.20689655196 0 -2068.965517241373  62758.62068965542 0 -2206.896551724131  57931.03448275886 0 -2344.827586206889  53103.44827586231 0 -2482.758620689649  48275.86206896573 0 -2620.689655172408  43448.27586206916 0 -2758.620689655167  38620.68965517257 0 -2896.551724137927  33793.103448276 0 -3034.482758620686  28965.51724137944 0 -3172.413793103445  24137.93103448287 0 -3310.344827586204  19310.34482758629 0 -3448.275862068963  14482.7586206897 0 -3586.206896551723  9655.172413793145 0 -3724.137931034482  4827.586206896551 0 -3862.068965517241  0 4999.999999999225 -4000  0 9999.999999998096 -4000  0 14999.99999999756 -4000  0 19999.99999999726 -4000  0 24999.99999999649 -4000  0 29999.99999999545 -4000  0 34999.99999999351 -4000  0 39999.99999999275 -4000  0 44999.99999999197 -4000  0 49999.9999999912 -4000  0 54999.99999999042 -4000  0 59999.99999998965 -4000  0 64999.99999998888 -4000  0 69999.99999998808 -4000  0 74999.99999998731 -4000  0 79999.99999998655 -4000  0 84999.99999998577 -4000  0 89999.99999998501 -4000  0 94999.99999998423 -4000  0 99999.99999998347 -4000  0 104999.9999999827 -4000  0 109999.9999999819 -4000  0 114999.9999999811 -4000  0 119999.9999999804 -4000  0 124999.9999999824 -4000  0 130000.0000000079 -4000  0 135000.0000000178 -4000  0 140000.000000017 -4000  0 145000.0000000163 -4000  0 150000.0000000155 -4000  0 155000.0000000147 -4000  0 160000.000000014 -4000  0 165000.0000000132 -4000  0 170000.0000000124 -4000  0 175000.0000000116 -4000  0 180000.0000000109 -4000  0 185000.0000000101 -4000  0 190000.0000000093 -4000  0 195000.0000000085 -4000  0 200000.0000000078 -4000  0 205000.000000007 -4000  0 210000.0000000062 -4000  0 215000.0000000054 -4000  0 220000.0000000047 -4000  0 225000.0000000039 -4000  0 230000.0000000031 -4000  0 235000.0000000024 -4000  0 240000.0000000016 -4000  0 245000.0000000008 -4000  138499.992698711 4754.026372277331 0  137093.2670052012 9536.639699345635 0  135699.8836753657 14323.17697982435 0  134242.0997113028 19090.39455387465 0  132631.3534429766 23807.82160930602 0  130751.3712685147 28423.75111080412 0  128562.4170940472 32902.44582968431 0  126285.2564027428 37336.77035579942 0  123661.3951409534 41572.18842203188 0  120466.1639654971 45392.17900234455 0  116742.7600150611 48701.57094013265 0  112599.2779558244 51459.89351581372 0  108052.7620132346 53498.30186482816 0  103362.6013075687 55186.61489180412 0  98626.9445524631 56744.1075396087 0  93895.10465571457 58313.07723732995 0  89213.61083253716 60025.29196098565 0  84659.98679375931 62049.90630856762 0  80423.72342827682 64664.16689082998 0  77079.46520597988 68320.91799726382 0  75401.03926413733 72984.18687963787 0  75132.31546441223 77953.39118957664 0  75517.79269400188 82922.72841733029 0  75994.12798690467 87884.97931497527 0  76141.03644053877 92865.72190814259 0  75577.6917399208 97812.27627089612 0  74056.71099135675 102551.9930892217 0  71898.80264107142 107043.8044784894 0  69421.09707510214 111369.0872951042 0  66791.23439747586 115604.1050970619 0  64120.91357323291 119813.8417572768 0  61505.46198361652 124057.7414488965 0  59050.55973913459 128395.9995763311 0  56903.24970482702 132893.1998504455 0  55303.81367464051 137609.8368688517 0  54543.69409163466 142530.9149478115 0  54488.96440186739 147512.6695308264 0  54974.77359561732 152472.3067464133 0  55867.62888085351 157375.8602543657 0  57059.2217642535 162216.0105874235 0  58457.1304431001 167000.9860755429 0  59967.68958253603 171751.8163324134 0  61481.85702780542 176501.4740946017 0  63249.74457712872 181161.0445509208 0  65477.30866714627 185617.8308927955 0  68245.7959420751 189759.2433519008 0  71520.4315061924 193514.3385976385 0  75350.61144867241 196685.7937683813 0  79773.17101542671 198974.8606729538 0  84378.90699153654 200882.4207250944 0  88911.60265377768 202954.8336515224 0  93435.45084417483 205047.09581866 0  98032.2666486997 206976.2210864664 0  102616.0836544937 208935.8107130805 0  107113.0495121478 211085.573258506 0  111372.3937621359 213667.5068784722 0  114843.2448044628 217203.7046179156 0  116698.1230832934 221806.0799432901 0  117775.060870244 226673.1998860401 0  119571.7838315423 231305.7208116875 0  122475.2761019627 235353.0279900247 0  125742.3595464658 239117.4724032586 0  129161.5121633181 242745.2442007751 0  132614.792595325 246340.7012191151 0  250000 250000 -8921.902778285936  250000 250000 -19170.47581238532  250000 250000 -30942.99472097832  250000 250000 -44466.06850109496  250000 230769.2307692338 -60000  250000 211538.4615384677 -60000  250000 192307.6923077015 -60000  250000 173076.9230769353 -60000  250000 153846.1538461692 -60000  250000 134615.384615403 -60000  250000 115384.615384597 -60000  250000 96153.84615383085 -60000  250000 76923.07692306468 -60000  250000 57692.30769229849 -60000  250000 38461.53846153233 -60000  250000 19230.76923076616 -60000  250000 0 -44466.06850109696  250000 0 -30942.99472111472  250000 0 -19170.47581244904  250000 0 -8921.90277830635  232227.1661023966 0 -60000  216296.9260375522 0 -60000  202018.2515568125 0 -60000  189219.9167941597 0 -60000  177748.4479527209 0 -60000  167466.2824799582 0 -60000  158250.1197834204 0 -60000  149989.4414908582 0 -60000  142585.1882295191 0 -60000  135948.5681760333 0 -60000  232227.1661023966 250000 -60000  216296.9260375522 250000 -60000  202018.2515568125 250000 -60000  189219.9167941597 250000 -60000  177748.4479527209 250000 -60000  167466.2824799582 250000 -60000  158250.1197834204 250000 -60000  149989.4414908582 250000 -60000  142585.1882295191 250000 -60000  135948.5681760333 250000 -60000  130000 244047.61904762 -60000  130000 238095.23809524 -60000  130000 232142.85714286 -60000  130000 226190.47619048 -60000  130000 220238.0952381 -60000  130000 214285.7142857199 -60000  130000 208333.3333333399 -60000  130000 202380.9523809599 -60000  130000 196428.5714285799 -60000  130000 190476.1904761999 -60000  130000 184523.8095238199 -60000  130000 178571.4285714399 -60000  130000 172619.0476190599 -60000  130000 166666.6666666799 -60000  130000 160714.2857142999 -60000  130000 154761.9047619199 -60000  130000 148809.5238095399 -60000  130000 142857.1428571599 -60000  130000 136904.7619047798 -60000  130000 130952.3809523998 -60000  130000 125000.0000000169 -60000  130000 119047.6190476054 -60000  130000 113095.2380
[...]
<PointData  Vectors="sample_post"> 
<DataArray  type="Float64"  Name="sample_post"  NumberOfComponents="3" format="ascii">3.9589374725138715e-01 1.3516771015148840e-01 -2.5410760650645584e-02  -6.9995213436601833e-01 -4.9715703271174833e-01 2.9022500035949783e-01  -4.4243456376773092e-02 1.8486427205216260e-02 -5.0561500087275522e-02  -2.5736484431361558e-03 5.7850716708236966e-02 -1.0731955534832009e-01  -1.0082071300087624e-01 -1.7325597727384429e-01 1.6903747306488673e-03  -7.5337834913243576e-03 -1.0509085698835018e-01 -1.5947283376034019e-01  -3.9800137689437999e-02 1.7396296362021897e-02 -4.9318390940128708e-02  -1.8171278017418998e-03 5.7989263339931249e-02 -1.0835641895508494e-01  -3.4996344886121028e-01 -2.3041532597324615e-01 6.0807472398537166e-01  -2.3468717413484358e-01 -1.4477586562643854e-01 1.8053240769476675e-01  -6.2868521028746716e-01 -2.7408011076586503e-01 7.8896156383052862e-01  -5.8813067165371691e-01 -2.6767802249537692e-01 5.3290086835143524e-01  -1.0187669628489637e+00 -3.5640628859194889e-01 1.1540015654854774e+00  -1.4825667317728926e+00 -5.0588710241683266e-01 1.2667627870521172e+00  -7.8125688809585281e-01 -2.9081212329600531e-01 4.6639738888775373e-01  -1.3741037999858512e+00 -6.6642113332370057e-01 1.4425088836563491e+00  -1.7970063511537201e-01 -7.3839233351217753e-02 -9.6102185894566705e-02  -1.5075256233401999e+00 -7.3830537348305270e-01 1.4592236990947085e+00  -2.4126931394513322e-02 -9.4606139720126402e-03 -1.4563486606055265e-01  -1.2831987259430684e+00 -4.1834410895056801e-01 6.3152786512739945e-01  -6.5365778772721150e-02 4.6832520472848407e-03 -1.5329428901289602e-01  -2.1488204192584388e+00 -6.5765944893807537e-01 1.1739304300318603e+00  -1.7850760400002459e+00 -8.0859783857563738e-01 1.4208280891950027e+00  -1.7294829279094768e+00 -6.6461835036391315e-01 1.3210287302793267e+00  -2.0931547462336200e+00 -6.2225721716235849e-01 9.9614051674382387e-01  -8.4652572677041360e-01 -2.8187992562880282e-01 2.0451014235639423e-01  -2.0086780556086543e+00 -5.7674431886526334e-01 9.3636502409149680e-01  -1.4058773958465378e+00 -2.5488520997848113e-01 8.7241890372544584e-01  -1.9037815481403084e+00 -5.3177984713914628e-01 9.1014919055934507e-01  -1.3625576428469581e+00 -4.1524798940410473e-01 4.7363090189439672e-01  -1.3957804802147853e+00 -3.9862842481838029e-01 5.1054791347438599e-01  -3.7081176991340220e-01 -5.3630889856411443e-02 -7.5298257029439458e-02  -9.3981940184417634e-01 -2.6570534627706788e-01 2.1010947613958211e-01  -4.0677547568480910e-01 -7.8446570583704189e-02 2.3310508695836030e-01  -4.5855420242547590e-01 -9.7094551983536698e-02 2.3869612494175527e-01  -8.9190513005917271e-01 -2.3971258186785882e-01 3.1121284710970437e-01  -7.1901523718286120e-01 -1.9576634161123038e-01 1.7619040972320676e-01  -2.0969049591955788e-01 3.6520198181499132e-02 -1.3863881108185827e-01  -4.5301206949782186e-01 -7.8927894991096426e-02 -4.6169514897985292e-02  -3.4184415028191661e-01 -8.3808459214793476e-02 -2.0397120286977474e-02  -3.0459893963404111e-01 -4.0532271067951611e-02 -7.7129130555315839e-02  -3.3932403800200753e-02 -2.9895213887021804e-02 -1.1789699080781378e-01  -2.4140383922481456e-01 1.7380165720111324e-02 -1.3084209538082228e-01  -5.2422776980102587e-02 9.6140231023762596e-02 -1.4488852945579228e-01  -2.9067403817171551e-02 -2.6763426354395773e-02 -6.6004451945074663e-02  -5.7801295978575237e-02 -7.7821882890253630e-02 -2.7972896804951696e-02  -2.8504545074300478e-02 -1.2457353592108596e-01 -1.4378953595506747e-01  -6.9917187056899299e-01 -4.9282112956718194e-01 2.8935778583525401e-01  -6.9691142065652600e-01 -4.8326432790347529e-01 2.8736504039429406e-01  -6.9251037006589156e-01 -4.7103139538117100e-01 2.8123440594873628e-01  -6.8642816893065461e-01 -4.5205153772521389e-01 2.7256531445836391e-01  -6.7976326695463107e-01 -4.2673463986340543e-01 2.6328658627930057e-01  -6.7025124480896381e-01 -3.9457692177673598e-01 2.4998001597624153e-01  -6.5683603879050712e-01 -3.5643917482408777e-01 2.3279043835782767e-01  -6.3914906956772199e-01 -3.1469878655831357e-01 2.1402275556055317e-01  -6.1669545106024315e-01 -2.7060572881960648e-01 1.9209627353207889e-01  -5.9011184710956299e-01 -2.2446410333943978e-01 1.6750701853404260e-01  -5.5709700905712622e-01 -1.8082011692616939e-01 1.4038056382545056e-01  -5.1996728763842492e-01 -1.4093199329103145e-01 1.1203479747334605e-01  -4.7640727334179755e-01 -1.0703446711398248e-01 8.2699922320069702e-02  -4.3070793397117801e-01 -8.3077746128984942e-02 5.2692262407167303e-02  -3.8099207036185234e-01 -7.2133904179501898e-02 2.3780543627759103e-02  -3.3212050545744737e-01 -7.0927937953965292e-02 -3.8029279628760595e-03  -2.8488900037597209e-01 -7.9464895077661968e-02 -2.9673405369116983e-02  -2.4081269913037373e-01 -9.4137336788825715e-02 -5.2998102101121963e-02  -1.9965769289610472e-01 -1.1277650106137529e-01 -7.4270869611030646e-02  -1.6470343618646105e-01 -1.3162724439799506e-01 -9.1536605575392282e-02  -1.3450542615397371e-01 -1.4808296178413216e-01 -1.0563875710142635e-01  -1.0938588042736479e-01 -1.6046113236678911e-01 -1.1796697658671983e-01  -8.8461068175246155e-02 -1.6649930027683191e-01 -1.2731745007739936e-01  -7.0699911524670450e-02 -1.6770550569393425e-01 -1.3306589247228906e-01  -5.7215291105510581e-02 -1.6261561651527034e-01 -1.3671251111938645e-01  -4.5601369129244868e-02 -1.5389745591326653e-01 -1.4048134401852139e-01  -3.6049362296168938e-02 -1.4032879777438945e-01 -1.4262694328030179e-01  -2.8030614421881588e-03 5.8508843957302804e-02 -1.0703410237850244e-01  -2.3575344103294827e-03 6.1832249451205940e-02 -1.0778476415645248e-01  -2.2831833570686249e-03 6.5308657059844913e-02 -1.0956063305279309e-01  -2.4295460038709334e-03 7.0128004152298445e-02 -1.1098283237393083e-01  -4.1077681408669426e-03 7.5255027674041075e-02 -1.1391049657061203e-01  -5.5257000628363955e-03 8.0274980498835108e-02 -1.1768150768790124e-01  -7.9854259379697982e-03 8.5435678925298270e-02 -1.1889282923272998e-01  -1.1647101812827115e-02 8.8034799042936859e-02 -1.2067079751133820e-01  -1.2798075667615129e-02 9.1149898679943761e-02 -1.2323748970676282e-01  -1.5606462409989620e-02 9.2886993084050004e-02 -1.2332975463389219e-01  -1.6455642270810096e-02 9.2950051180010443e-02 -1.2295420928154542e-01  -1.6875452628076045e-02 9.1218258598664531e-02 -1.2096865050242485e-01  -1.8659472822526797e-02 8.7939041117942804e-02 -1.1699710806328568e-01  -2.1232875463319031e-02 8.2259650281268887e-02 -1.1164550497965989e-01  -2.2937415369139194e-02 7.6104490450609880e-02 -1.0700398410863947e-01  -2.5502627105445572e-02 7.0479757717090419e-02 -1.0053832652914224e-01  -2.6163692003672044e-02 6.4016621519224728e-02 -9.3541929083958059e-02  -2.7113972013315484e-02 5.5631064880805381e-02 -8.5110979746700996e-02  -3.0546697817216761e-02 4.6674058838500558e-02 -7.6528402631268630e-02  -3.3605541019198347e-02 3.8760496115918794e-02 -6.7899629645411158e-02  -3.7096864237392668e-02 3.2798844105763170e-02 -6.2364417150345408e-02  -3.9325439800594879e-02 2.6525165890104813e-02 -5.7038092307743225e-02  -4.0312281426351987e-02 2.2117103486154893e-02 -5.2440061684256523e-02  -4.2356788513661259e-02 1.9163557128535569e-02 -5.2063792806900891e-02  -5.3045379500992765e-02 -8.6354272340308347e-02 -2.7152668944445898e-02  -4.6012731106297125e-02 -9.4330045994636638e-02 -2.7354654231918372e-02  -3.7283063728397715e-02 -1.0164017741911847e-01 -2.9569281180900537e-02  -2.8408259186267659e-02 -1.0942764553545306e-01 -3.0993705361827238e-02  -1.6452878260462760e-02 -1.1738313718407928e-01 -3.2038995047769733e-02  -3.5182612348744081e-03 -1.2569858998101283e-01 -3.5690342057393555e-02  1.1955965101025845e-02 -1.3137607572411952e-01 -3.8951173909589715e-02  2.7987013753356164e-02 -1.3607243703982325e-01 -4.1282001973847349e-02  4.5354353671621148e-02 -1.3976709309055460e-01 -4.3919602167892605e-02  6.5205815599196262e-02 -1.4152450544492806e-01 -4.7235084848125490e-02  8.5893374323698340e-02 -1.4182804607339902e-01 -5.0726515564556221e-02  1.0697219149540134e-01 -1.3965006654534376e-01 -5.4146479653115330e-02  1.3070503969659944e-01 -1.3456220074375147e-01 -5.7205793959967187e-02  1.5480022860076989e-01 -1.2646737956299747e-01 -5.8621760179820341e-02  1.7938136870230559e-01 -1.1568674535124021e-01 -6.1178508386740854e-02  2.0307977575672778e-01 -1.0124502642464589e-01 -6.1874031766433392e-02  2.2751740618852914e-01 -8.2183913151139459e-02 -6.1242332866880009e-02  2.4974483420028193e-01 -6.1555801387508741e-02 -5.8866771286951787e-02  2.7178898006429653e-01 -3.9934007604318852e-02 -5.5836943333432427e-02  2.9250592247636797e-01 -1.6549282915162056e-02 -5.3172361737358259e-02  3.1163571451109878e-01 7.4843528452734932e-03 -4.9644930359170301e-02  3.2909560652237640e-01 3.2584711133441600e-02 -4.5430573711364150e-02  3.4514495712685955e-01 5.6864147438952399e-02 -4.1115449667737100e-02  3.5913330158330353e-01 7.9950533430558357e-02 -3.7607232446765726e-02  3.7219138888991671e-01 9.8363987531157743e-02 -3.4664327999047034e-02  3.8318941985409216e-01 1.1298415750124127e-01 -3.1787781115644037e-02  3.9004474316155063e-01 1.2526419594109878e-01 -2.8961353659473544e-02  3.9427915375070466e-01 1.3220342437178556e-01 -2.6279911933808957e-02  4.0034659356899782e-01 1.4198956065127505e-01 -2.4190147466954082e-02  4.0883064548169751e-01 1.5609947629288584e-01 -2.1251055334535668e-02  4.2139241863816301e-01 1.8084260770881141e-01 -1.5678439500801382e-02  4.3943172877863584e-01 2.2025655767784949e-01 -6.7581601359385322e-03  4.5995324399509757e-01 2.6582850004259984e-01 4.0232731176787963e-03  4.8587042907940459e-01 3.2508981742263265e-01 2.1480060173894998e-02  5.1477163388858438e-01 3.9407073515071817e-01 4.1300836487874325e-02  5.4700277945936815e-01 4.7377513122564979e-01 6.7032416344067910e-02  5.8220377907211485e-01 5.5795227111311896e-01 9.7599435820236835e-02  6.1815775450946608e-01 6.5052971600226450e-01 1.3371853325600691e-01  6.5380063667298971e-01 7.4607182105890835e-01 1.7292208853431801e-01  6.9069001439542155e-01 8.4145553545593599e-01 2.1668353418237898e-01  7.2317829204806727e-01 9.2924105057433326e-01 2.6670264042645331e-01  7.4926629840407399e-01 1.0069685774690269e+00 3.2287868077534354e-01  7.6579136660914582e-01 1.0667476093495794e+00 3.8563481002448824e-01  7.7338756589843394e-01 1.1115343703504239e+00 4.5345958646110152e-01  7.6911610592197577e-01 1.1375823984948741e+00 5.2712383135550289e-01  7.5190682558550093e-01 1.1418578984506440e+00 6.0413273346166108e-01  7.1930237368256844e-01 1.1243685079348418e+00 6.8196713716421820e-01  6.7646811780063520e-01 1.0934875905101842e+00 7.5771974484042792e-01  6.2825030132513326e-01 1.0555760928091291e+00 8.3180593449614304e-01  5.7399241551828017e-01 1.0156955515815478e+00 8.9388914710235079e-01  5.2160879421765383e-01 9.7440779748575190e-01 9.5316881907312223e-01  4.7146649037836746e-01 9.4182457158618149e-01 9.9729643899962250e-01  4.1785075188901749e-01 9.0878731470805052e-01 1.0321758591314474e+00  3.4836663303999404e-01 8.7693642032654973e-01 1.0580833047550029e+00  2.7040809181092745e-01 8.4617353822817587e-01 1.0764073141266763e+00  1.5379588631365615e-01 8.0623671152619703e-01 1.0876657866138677e+00  1.7235440093900222e-02 7.6017859013164590e-01 1.0940235846164212e+00  -1.4176669823819099e-01 7.1092110653735607e-01 1.0919097613306832e+00  -3.0623925807131225e-01 6.5174516689857831e-01 1.0788174269320441e+00  -4.6559656891946100e-01 5.8730916047958548e-01 1.0594711698695465e+00  -5.8745356697030926e-01 5.0722129188104004e-01 1.0222096345318212e+00  -6.9091101436843061e-01 4.2021912051317178e-01 9.7834709396061559e-01  -7.3804661872817667e-01 3.1477126324432203e-01 9.1918151333589371e-01  -7.5756255794435334e-01 1.9757030115290580e-01 8.5265013903801379e-01  -7.4236926880254528e-01 7.0704347262805917e-02 7.8176723215606003e-01  -7.1898004188374409e-01 -5.6411886200497079e-02 7.1107692708937842e-01  -6.8547223908751442e-01 -1.7478147043625644e-01 6.4279030005998106e-01  -6.6200373743242347e-01 -2.7952116962458184e-01 5.7848530731646208e-01  -6.4639706239915018e-01 -3.6357450201091346e-01 5.2029306179664236e-01  -6.3910045339976196e-01 -4.3005675703516238e-01 4.6789550247015660e-01  -6.4310257682004934e-01 -4.7121554762081069e-01 4.2443478360599152e-01  -6.5243788152985016e-01 -4.9581476383227602e-01 3.8728520605090067e-01  -6.6258110033598139e-01 -5.0779822791710960e-01 3.5735199593711792e-01  -6.7413528882552243e-01 -5.1141838730349665e-01 3.3330171487143717e-01  -6.8449124589699206e-01 -5.0835312374000252e-01 3.1409165994735205e-01  -6.9214613428374683e-01 -5.0312063395240281e-01 3.0209748308049278e-01  -6.9745370314044641e-01 -4.9900673543464996e-01 2.9469195476629911e-01  -5.6460230266665086e-02 -7.8593526550118628e-02 -2.8807806979101173e-02  -5.3988364674170466e-02 -7.6356611611654704e-02 -3.0625725675013631e-02  -5.0858829972345969e-02 -7.1082233599819564e-02 -3.4329600559330577e-02  -4.6054181790520211e-02 -6.3046190539051541e-02 -3.9232383791590338e-02  -4.0573012095542350e-02 -5.2766580139718418e-02 -4.6905055590948382e-02  -3.4260293050573515e-02 -4.0893882055460087e-02 -5.5957308226908517e-02  -2.5582345534435374e-02 -2.8839093838954166e-02 -6.6321928739254063e-02  -1.6419444970557136e-02 -1.7019587271256395e-02 -7.7781780925709518e-02  -5.6000554637911119e-03 -7.1249123829758522e-03 -9.0712719500514127e-02  7.5893295438513144e-03 5.6311084252929689e-04 -1.0342500974465733e-01  2.3933508776872156e-02 3.9351837700120264e-03 -1.1632401350266335e-01  4.3464914541372357e-02 -5.2708643625735507e-04 -1.2779600709930822e-01  6.5402832216788220e-02 -1.0019870727804442e-02 -1.3633574888055475e-01  8.8393431509645279e-02 -2.1783091290092829e-02 -1.4229632196917028e-01  1.1115958853811073e-01 -3.8513867552801423e-02 -1.4356939791536572e-01  1.2820455381002016e-01 -5.7269178310313106e-02 -1.3635596069341646e-01  1.4010152944302959e-01 -7.1426926830570614e-02 -1.2189532395615008e-01  1.3612576638769699e-01 -8.1716044776610292e-02 -9.4267302959210778e-02  1.1571083249907126e-01 -7.5004998680815754e-02 -5.1585524380380839e-02  6.4142391364458790e-02 -4.4228449629226500e-02 1.1026934897293023e-02  -3.8596646830538331e-02 -1.4677046526002395e-02 9.2647254694652015e-02  -1.8292937689100447e-01 1.3272196721611748e-02 1.8974718322757286e-01  -3.6860049578446075e-01 1.8911610570651209e-02 3.0193432496549422e-01  -5.9297473307772797e-01 2.2081723101860466e-03 4.3317640001332786e-01  -8.4727493495898321e-01 -3.5229639283140539e-02 5.8645570332273977e-01  -1.1036742886691324e+00 -9.5867829727500228e-02 7.5760073879786072e-01  -1.3334307897211519e+00 -1.9316621039847201e-01 9.3483470043808692e-01  -1.4894419788859776e+00 -3.1426834113662766e-01 1.0933540127413250e+00  -1.5670756735453064e+00 -4.8712175210092551e-01 1.2241081513374525e+00  -1.5413909436279767e+00 -6.4329572949462888e-01 1.3126723794438144e+00  -1.4640352151454479e+00 -7.6443582174047253e-01 1.3775273064441800e+00  -1.2911723096284375e+00 -7.2465465730211731e-01 1.3993823215181453e+00  -1.0368761550449213e+00 -6.1013395293138029e-01 1.3821123505302317e+00  -7.3696005167593426e-01 -4.4101477366501629e-01 1.3365977282532231e+00  -4.8156768479536521e-01 -2.8238288578910364e-01 1.2728463956051803e+00  -3.0817649529466939e-01 -1.4751693423406637e-01 1.2028551994983054e+00  -2.0200015900084833e-01 -4.7658046230944294e-02 1.1230652814018105e+00  -1.2973106056605327e-01 1.0804856021061831e-02 1.0272461757992324e+00  -7.4371514384625484e-02 2.4426181288601537e-02 9.2188974450350503e-01  -3.9607982640690903e-02 9.5935336857574868e-03 8.1199289631019911e-01  1.0047344336309336e-02 -2.2954560625996778e-02 6.9157480170154684e-01  4.5148652392685847e-02 -8.7653445696788498e-02 5.7547396342334767e-01  3.0949177672426026e-02 -1.5403905930454490e-01 4.7510805832767133e-01  -1.7695289002516729e-02 -1.7529520814904423e-01 3.8467189667594104e-01  -5.9190351812598373e-02 -1.5990955866197476e-01 2.9993327696175470e-01  -8.9110802331247088e-02 -1.0441028406124662e-01 2.1822729484101722e-01  -9.5857572486133164e-02 -4.4725236011549388e-02 1.4052505817160804e-01  -9.0109513970925079e-02 -1.5619817241846272e-05 7.1774948226471444e-02  -7.1424733145084726e-02 2.8515230152670160e-02 1.0275885152387922e-02  -5.0062257876604323e-02 4.1924557529069997e-02 -4.1633808688373582e-02  -3.3503692248200732e-02 4.0139582459549197e-02 -8.4731895447834590e-02  -2.0537866319044917e-02 2.7366838335965121e-02 -1.1693256038595851e-01  -1.4092560354565024e-02 6.3575792324984306e-03 -1.3697354108390139e-01  -1.1545295529796103e-02 -1.4903668891413493e-02 -1.5191220984962270e-01  -1.1994723632270490e-02 -3.6224203146722381e-02 -1.5958179180456983e-01  -1.5789297984978606e-02 -5.8732207059967914e-02 -1.6212760251880728e-01  -2.1805070312725241e-02 -7.8838380135495476e-02 -1.6039263159028921e-01  -2.9025371999018310e-02 -9.9128180839423902e-02 -1.5638025470434003e-01  -3.7867026818222987e-02 -1.1741192152967508e-01 -1.5145988928265705e-01  -4.2971958973736998e-02 -1.3302660973690064e-01 -1.4688119824127149e-01  -4.3624622265795394e-02 -1.4102721323835041e-01 -1.4426059326576127e-01  -4.1460550253296841e-02 -1.4347596514554878e-01 -1.4248091177666480e-01  -3.7440750518286561e-02 -1.4128824229870066e-01 -1.4224737073809693e-01  -3.2872858546081539e-02 -1.3500080782951190e-01 -1.4304002028341814e-01  -2.5626627082762157e-03 5.9275877468879391e-02 -1.0697659367672356e-01  -1.2493734061562356e-03 5.8988420811201800e-02 -1.0649771581936716e-01  -1.0241493939274794e-03 5.8132441807139362e-02 -1.0693567681457512e-01  -3.8549209337977600e-04 5.7034231131754091e-02 -1.0870401266933209e-01  -3.4186816433383949e-03 6.1408554698562712e-02 -1.0913126049094940e-01  -6.0562740665612048e-03 7.0367528986724950e-02 -1.1139511543774430e-01  -7.4790028473878467e-03 8.0468600038731269e-02 -1.1603789888771895e-01  -8.1803770835279215e-03 9.1925499449376460e-02 -1.2172577584129818e-01  -1.1050986173375936e-02 9.6506162420384581e-02 -1.2367060216696879e-01  -1.4359426152629256e-02 9.5034006992936751e-02 -1.2248559543802384e-01  -1.7520287712117121e-02 8.8672640135787628e-02 -1.1722037055505423e-01  -2.2342156578556118e-02 7.8000291496504726e-02 -1.0631944307480212e-01  -2.6021042308974840e-02 6.3477307785088463e-02 -9.1956871888018099e-02  -3.0606605487036791e-02 4.6541737652373696e-02 -7.6375828278249097e-02  -3.6577720328224261e-02 3.1270913502378136e-02 -6.2409027285891795e-02  -3.9983200465872233e-02 2.1339000033588185e-02 -5.1882231621852230e-02  -4.0449969937667821e-02 1.7070603133121379e-02 -4.8551017723114417e-02  -4.1369584521521188e-02 1.7443211707020224e-02 -4.9626546465208074e-02  -4.1318794291654234e-02 1.7829829135299041e-02 -5.0189388079328691e-02  -4.2873086471987620e-02 1.8115923654353140e-02 -5.0888107408691825e-02  -4.1378093255273557e-02 1.5917715760226520e-02 -4.7402581139481523e-02  -5.0140121489005492e-02 9.3948013486389089e-03 -4.4390725016078027e-02  -5.9177735466242727e-02 -3.7862218816128246e-04 -3.9863494726424725e-02  -6.8016500638884730e-02 -1.4849219508093696e-02 -3.2779808871536642e-02  -7.9101541817202276e-02 -3.1964021178898343e-02 -2.4469340648032443e-02  -8.8821485200332576e-02 -5.2224021628067913e-02 -1.5903456816194730e-02  -9.6715428451644131e-02 -7.7990273134712670e-02 -9.5741052187984007e-03  -1.0095546673069847e-01 -1.0800521223895429e-01 -2.9887980369789815e-03  -1.0430783163521747e-01 -1.3262347949822592e-01 7.1226927934608096e-04  -1.0414079100863666e-01 -1.5657772529219877e-01 2.9757340821239741e-03  -2.1355230133169654e-03 5.7746411346843850e-02 -1.1056946016721257e-01  -1.5429171692693559e-03 5.4491779945597826e-02 -1.1481799530906089e-01  -4.2098422251792555e-03 4.9268328791322424e-02 -1.2197604129574847e-01  -2.6146152102954350e-03 3.8574914955608670e-02 -1.2896668292558205e-01  -2.2745924607107250e-03 2.4467339213237911e-02 -1.3439122259604339e-01  -2.1049010196377582e-03 4.8271570690958578e-03 -1.4190589860870956e-01  -9.4007751922824172e-05 -1.5709900107151231e-02 -1.4922737748669651e-01  -3.9318771333745267e-04 -4.0466073