<?xml version="1.0"?>
<VTKFile type="UnstructuredGrid"  version="0.1"  >
<UnstructuredGrid>
<Piece  NumberOfPoints="3594" NumberOfCells="14547">
<Points>
<DataArray  type="Float64"  NumberOfComponents="3"  format="ascii">0 0 -4000  0 250000 -4000  250000 0 0  250000 250000 0  135000 0 -60000  135000 250000 -60000  250000 0 -60000  250000 250000 -60000  65308.5 173604.8 0  78441.2 185529.2 0  65707.89999999999 168017.6 0  73555.60000000001 174095.8 0  61257.8 157386.9 0  65291.6 154352.5 0  82112.3 172814.3 0  58804.1 138685.6 0  106822.8 190893.8 0  60152.4 136426.2 0  144960.9 230041.9 0  88660.10000000001 163931.9 0  134829.2 208246.3 0  82409 149993.8 0  65214.4 127836 0  67249.7 122418.9 0  91916.7 141284.3 0  125498.1 99698.5 0  111195.9 162013.4 0  92905.39999999999 131283.2 0  77176.5 109747.4 0  90809.3 124059.5 0  107806.1 141615.9 0  104439.5 126126.3 0  137051.8 160541 0  118095 132800.4 0  82238.39999999999 90851.5 0  84123.2 92291 0  98197.5 105309.4 0  105163 104713.8 0  154799.8 153672.9 0  133655.9 122823.1 0  111467 94557.3 0  106995.1 77971.8 0  149450.7 123239.8 0  192061 157764 0  133903.2 45232 0  140000 0 0  136000 250000 0  9714.285714284615 250000 -3714.285714285747  19428.57142857481 250000 -3428.571428571329  29142.85714285597 250000 -3142.857142857177  38857.14285713715 250000 -2857.142857143025  48571.42857141832 250000 -2571.428571428873  58285.71428569948 250000 -2285.714285714721  67999.99999998066 250000 -2000.000000000569  77714.28571426184 250000 -1714.285714286416  87428.571428543 250000 -1428.571428572265  97142.85714282417 250000 -1142.857142858113  106857.1428571053 250000 -857.1428571439606  116571.4285713865 250000 -571.4285714298085  126285.7142856677 250000 -285.7142857156564  250000 240000.0000000016 0  250000 230000.0000000032 0  250000 220000.0000000048 0  250000 210000.0000000064 0  250000 200000.0000000079 0  250000 190000.0000000095 0  250000 180000.0000000111 0  250000 170000.0000000127 0  250000 160000.0000000143 0  250000 150000.0000000159 0  250000 140000.0000000175 0  250000 130000.0000000191 0  250000 119999.9999999916 0  250000 109999.9999999825 0  250000 99999.99999998408 0  250000 89999.99999998568 0  250000 79999.99999998725 0  250000 69999.99999998885 0  250000 59999.99999999045 0  250000 49999.99999999205 0  250000 39999.99999999366 0  250000 29999.99999999526 0  250000 19999.9999999968 0  250000 9999.999999998399 0  130000 0 -285.714285714285  120000 0 -571.4285714285701  110000.0000000001 0 -857.1428571428546  100000.0000000001 0 -1142.857142857139  90000.00000000017 0 -1428.571428571424  80000.0000000002 0 -1714.285714285709  70000.00000000025 0 -1999.999999999993  60000.00000000026 0 -2285.714285714278  50000.00000000023 0 -2571.428571428565  40000.00000000019 0 -2857.142857142852  30000.00000000015 0 -3142.857142857139  20000.00000000009 0 -3428.571428571426  10000.00000000004 0 -3714.285714285713  0 9999.999999998096 -4000  0 19999.99999999726 -4000  0 29999.99999999545 -4000  0 39999.99999999275 -4000  0 49999.9999999912 -4000  0 59999.99999998965 -4000  0 69999.99999998808 -4000  0 79999.99999998655 -4000  0 89999.99999998501 -4000  0 99999.99999998347 -4000  0 109999.9999999819 -4000  0 119999.9999999804 -4000  0 130000.0000000079 -4000  0 140000.000000017 -4000  0 150000.0000000155 -4000  0 160000.000000014 -4000  0 170000.0000000124 -4000  0 180000.0000000109 -4000  0 190000.0000000093 -4000  0 200000.0000000078 -4000  0 210000.0000000062 -4000  0 220000.0000000047 -4000  0 230000.0000000031 -4000  0 240000.0000000016 -4000  134615.5786831678 8376.221222376078 0  129135.8381374389 16690.61556165003 0  123693.3119097638 25029.34528065769 0  118458.7304757098 33499.41630675747 0  114183.5561631282 42453.40693221996 0  117152.9012549134 51656.5775220433 0  109640.5189223821 56772.26946740811 0  99783.22349336625 58163.79074226946 0  89906.64048415456 59427.041153887 0  80231.83368741472 61714.93090982783 0  73457.07599492084 68333.04562829909 0  74666.1562536891 78126.62096439983 0  77477.57171300898 87678.05180735435 0  78461.83411646895 97534.63399308435 0  75049.04009726809 106816.2708870931 0  69538.50964765088 115103.6313494232 0  63598.75337311435 123095.8011052612 0  58118.08704720287 131402.6075281692 0  54672.56885839759 140685.5429709587 0  54507.01644649181 150612.6283068675 0  56360.01451579022 160386.8607035369 0  59277.85033353963 169905.2699317088 0  62638.60576621335 179274.2426304358 0  68212.99295126265 187459.3754999009 0  75814.40529046141 193858.3467082375 0  84761.00503602097 198204.6515231062 0  94061.92665129391 201734.182040823 0  103676.4565927747 204325.1412130333 0  112974.540309108 207830.3235759034 0  118972.4630267572 215380.3369922852 0  120264.8170507578 225241.997356352 0  123444.1757132735 234565.2722630062 0  129527.245366261 242435.1534677757 0  250000 250000 -9999.999999997535  250000 250000 -19999.99999997662  250000 250000 -29999.9999999377  250000 250000 -39999.99999995799  250000 250000 -49999.999999979  250000 240000.0000000016 -60000  250000 230000.0000000032 -60000  250000 220000.0000000048 -60000  250000 210000.0000000064 -60000  250000 200000.0000000079 -60000  250000 190000.0000000095 -60000  250000 180000.0000000111 -60000  250000 170000.0000000127 -60000  250000 160000.0000000143 -60000  250000 150000.0000000159 -60000  250000 140000.0000000175 -60000  250000 130000.0000000191 -60000  250000 119999.9999999916 -60000  250000 109999.9999999825 -60000  250000 99999.99999998408 -60000  250000 89999.99999998568 -60000  250000 79999.99999998725 -60000  250000 69999.99999998885 -60000  250000 59999.99999999045 -60000  250000 49999.99999999205 -60000  250000 39999.99999999366 -60000  250000 29999.99999999526 -60000  250000 19999.9999999968 -60000  250000 9999.999999998399 -60000  250000 0 -49999.99999997466  250000 0 -39999.99999999574  250000 0 -30000.00000007532  250000 0 -20000.00000005069  250000 0 -10000.00000002534  240416.6666666667 0 -60000  230833.3333333333 0 -60000  221250 0 -60000  211666.6666666667 0 -60000  202083.3333333333 0 -60000  192500 0 -60000  182916.6666666667 0 -60000  173333.3333333333 0 -60000  163750 0 -60000  154166.6666666667 0 -60000  144583.3333333333 0 -60000  240416.6666666667 250000 -60000  230833.3333333333 250000 -60000  221250 250000 -60000  211666.6666666667 250000 -60000  202083.3333333333 250000 -60000  192500 250000 -60000  182916.6666666667 250000 -60000  173333.3333333333 250000 -60000  163750 250000 -60000  154166.6666666667 250000 -60000  144583.3333333333 250000 -60000  135000 240000.0000000016 -60000  135000 230000.0000000032 -60000  135000 220000.0000000048 -60000  135000 210000.0000000064 -60000  135000 200000.0000000079 -60000  135000 190000.0000000095 -60000  135000 180000.0000000111 -60000  135000 170000.0000000127 -60000  135000 160000.0000000143 -60000  135000 150000.0000000159 -60000  135000 140000.0000000175 -60000  135000 130000.0000000191 -60000  135000 119999.9999999916 -60000  135000 109999.9999999825 -60000  135000 99999.99999998408 -60000  135000 89999.99999998568 -60000  135000 79999.99999998725 -60000  135000 69999.99999998885 -60000  135000 59999.99999999045 -60000  135000 49999.99999999205 -60000  135000 39999.99999999366 -60000  135000 29999.99999999526 -60000  135000 19999.9999999968 -60000  135000 9999.999999998399 -60000  9760.266420117418 0 -5952.053284023483  19520.53309387125 0 -7904.10661877425  29307.1102415074 0 -9718.421407375839  39104.7333719938 0 -11473.30036109216  48875.83924532436 0 -13369.19882213981  58571.87012930932 0 -15613.67939664691  68124.11986543986 0 -18408.53002372226  77527.76485865096 0 -21667.33907869995  86719.09466349281 0 -25482.98540480309  95631.92793098884 0 -29908.59492259344  104180.5528547143 0 -35003.66989024555  112449.6580983703 0 -40542.62450796275  120509.52686276 0 -46382.42388125008  127994.6878848568 0 -52930.54997290741  9760.266420117418 250000 -5952.053284023483  19520.53309387125 249999.9999999999 -7904.10661877425  29307.1102415074 250000 -9718.421407375839  39104.7333719938 250000 -11473.30036109216  48875.83924532436 250000 -13369.19882213981  58571.87012930932 250000 -15613.67939664691  68124.11986543986 250000 -18408.53002372226  77527.76485865096 250000 -21667.33907869995  86719.09466349281 250000 -25482.98540480309  95631.92793098884 250000 -29908.59492259344  104180.5528547143 250000 -35003.66989024555  112449.6580983703 250000 -40542.62450796275  120509.52686276 250000 -46382.42388125008  127994.6878848568 250000 -52930.54997290741  145499.999999982 250000 0  154999.999999964 250000 0  164499.999999946 250000 0  173999.999999928 250000 0  183499.99999991 250000 0  192999.9999998977 250000 0  202500.00000009 250000 0  212000.000000072 250000 0  221500.000000054 250000 0  231000.000000036 250000 0  240500.000000018 250000 0  240000.0000001065 0 0  230000.0000002129 0 0  220000.0000003194 0 0  210000.0000004258 0 0  200000.0000005323 0 0  190000.0000006387 0 0  180000.0000006325 0 0  170000.0000004744 0 0  160000.0000003162 0 0  150000.0000001582 0 0  81541.63335874674 35498.13281562441 -1158.202651726381  46004.68664141578 194254.3443995834 -2060.726341037222  32687.99629987251 175105.6839569158 -2219.415882311186  36663.59507600099 63079.34846719183 -2167.093431592842  52002.09530018299 134928.3526843132 -266.7613614382204  59599.13772899003 109177.3480854863 -691.4602217251189  13806.90843888927 84795.87142461444 -3288.608480833754  42042.1003123136 65482.76889364541 -1784.344992951069  85917.78356508871 211210.3489857896 -1084.187284676976  26344.15959288631 140617.4121347481 -2112.437398247788  49350.86723141051 36336.78604214006 -2272.704599832591  21702.40331646254 119880.0690882354 -2466.437976166102  57313.56589490068 220733.4025395545 -2090.49117424689  28866.73893404105 218351.493928639 -3037.311471166797  64300.33793173476 48969.94193502321 -1793.328299662734  52482.25996720623 28090.02703717845 -2196.191483315934  63095.9704402233 54899.2587271606 -1627.600015239288
[...]
<PointData  Vectors="sample_prior"> 
<DataArray  type="Float64"  Name="sample_prior"  NumberOfComponents="3" format="ascii">9.4307131571746527e-02 5.9725897763699132e-01 -8.3998125697924775e-01  2.8507908771493606e-01 -4.4425829683067714e-01 1.1343339412259261e+00  -1.1789851688418931e-01 -1.9197601968555519e-01 2.4846118289838737e-01  2.1931625065161525e-01 2.6179015088452223e-01 1.8874153401314059e-01  4.5451875101294514e-01 -1.6437844639572610e-01 -7.2024504603901737e-02  -2.0301966073895561e-02 2.8957302524338319e-01 -6.1176233401534086e-01  -5.2568998844320136e-01 5.1146815784310129e-01 -1.2536464174696285e-01  -5.0536269243985410e-01 1.4246443734547945e-01 4.1427659638721254e-01  -6.6293543637331309e-02 1.3494078997925529e-03 -1.4111745103880494e-01  4.0043958778274158e-03 1.0727888221491083e-01 9.9619307170066042e-03  -6.2206517476151059e-02 -4.3504411339367688e-03 4.4238470384095818e-03  -4.0846797489919415e-02 2.1074095631214131e-02 -1.4345414887472679e-01  7.5137859691070230e-02 2.6860624019411150e-01 2.8679856419456401e-01  5.8035628263980017e-02 2.5583107331887706e-01 1.8008176650792129e-01  2.3812290629577820e-01 1.8399273352630208e-01 -2.4599886984459009e-02  -7.8829875564654775e-02 -8.6599784213283060e-03 2.5365343022253672e-01  7.4984700565743884e-02 -1.6964198835554781e-01 -5.3592604634581612e-02  -1.3058571157837576e-01 -1.3804183064496969e-01 2.4317213704338109e-01  6.8591695645965345e-02 -5.9568416122473968e-02 1.1197616290503329e-01  1.5094842167182965e-01 -2.4870278293598402e-01 1.2249411038661676e-01  -2.5829793640504447e-03 2.3451286082100103e-01 2.3647366518343264e-02  -1.1061051877496069e-02 8.9040954448191129e-02 7.3131418922621677e-02  -2.3148731374414300e-01 7.4654937043629438e-02 1.8568997770643811e-01  -8.2139434040027409e-02 2.9929176214990427e-02 1.9873315271092010e-01  -1.3994611797930422e-02 1.7972578828799751e-01 1.9457293778232819e-02  -2.9208723119948900e-02 1.0181391209445201e-01 -1.8971258514134029e-01  9.4595380796479236e-02 1.0303541987924540e-01 -1.8229372979177100e-01  1.5069938007334824e-01 2.4157395307798146e-02 -1.5850130767192264e-01  1.0824343391055810e-01 -2.7764784664741449e-01 -3.6306786876971612e-04  1.4700778476473417e-01 -2.8904197893660000e-02 -1.3563077957958961e-01  -1.4182268466978232e-01 9.7113348281921669e-02 -1.7503258325366503e-01  1.0636716136956974e-01 7.6738950767675868e-02 7.4546418460212427e-02  1.3631875978934593e-02 -1.6300235597835358e-01 -5.9419830945647331e-02  -2.0071951558805001e-01 1.7203157432890140e-01 -5.9322912800512023e-02  1.8047494405630513e-02 -7.8618982741934740e-02 -3.3317944518013887e-01  2.4091206359650945e-02 -9.7236628485313323e-02 -2.8659587636493938e-01  1.9449922621069562e-01 -1.5713647258139615e-01 -1.0781139117579996e-01  1.0856001912979954e-01 -2.0133904117100790e-01 -1.7550369857214712e-01  8.3506346098588841e-02 2.8096899163088640e-01 6.2352291279144240e-02  -1.4491570366392094e-02 -1.4356066568545811e-01 -5.7215519550244176e-02  2.5335743929571325e-01 4.8913387847051570e-03 -6.9751446261576311e-02  -9.7594223753116952e-02 1.4387455046229405e-01 -2.3935526591850123e-01  2.8472902866281163e-02 7.0229495577439044e-02 2.1284465522818975e-02  1.9521201190045354e-01 8.0035046228311077e-02 -1.0727816921611735e-01  1.4823915660837186e-01 9.8617181162078835e-02 -4.8848680276054907e-02  5.7200167817353875e-02 -1.9564095069144002e-01 2.9881443396065499e-01  1.5530855375312469e-01 -2.3265539586165038e-01 -2.4659280768653422e-01  -1.0889767796219646e-01 3.0492016627679024e-02 -8.4680407677311026e-02  -4.6503916966114378e-01 7.5498874746777289e-01 2.9109981204201846e-02  -1.7024943398880865e-01 3.9808012425738554e-01 -1.1770188996684458e-01  -9.2613911138252070e-02 -6.1167697263096302e-02 -3.5298196574741775e-01  -1.1258861227602567e-01 -1.6754745820761099e-01 -6.3651727968801475e-01  7.9842214020897390e-02 5.1394352256231048e-02 7.3124171818874954e-03  6.7006242071519770e-02 2.5497272826657896e-01 2.4865627189790573e-01  -1.2338825131316331e-01 3.9749355864023023e-01 -3.2209284698228043e-02  8.5802110676664350e-02 -4.4172930418187345e-02 -9.5868232190044981e-03  -2.5071975479690789e-01 -3.1975713025417574e-02 -4.5500082982207965e-02  -1.4888048622044273e-01 -4.2057400151455848e-01 2.2880327487083105e-01  -4.5070482426367603e-02 -1.6945028944204357e-01 -3.7546231147928233e-01  1.3757047188346064e-01 -3.4027031440873179e-01 -1.4910343517963057e-01  2.0497326023095858e-01 3.9824528065778469e-01 3.2905765780952118e-01  -2.3678648381383408e-01 6.0554755608246892e-02 3.9324731728261014e-01  -1.4840461121584742e-01 2.6297451360173030e-01 2.6297835411511505e-01  1.6743044904792437e-02 3.3834844163109536e-02 -1.8727165254037451e-02  3.1229954796322107e-01 2.4274515459717871e-01 -1.2775845235546249e-01  1.9759407092633263e-01 -1.0304397777296277e-01 -3.2457346461711761e-01  8.0318091525905466e-02 4.3630504363433277e-02 -3.7251476570183066e-02  2.7992878664092630e-01 -2.9252451294108289e-01 -5.0576173355024123e-01  -1.5640771160069430e-01 -2.1504156073082800e-02 -1.4507036506006019e-01  1.8340981988150881e-01 6.1932280422725500e-02 -1.3324001526037821e-02  1.0237796005297906e-01 -3.2344231306989779e-01 -2.2423846844459572e-01  7.9677574330562634e-02 -1.8154717614892274e-01 -5.5838960050471960e-02  2.6605843168318244e-03 -2.3484553251576534e-01 -4.1892096397598222e-01  -3.3051902922662557e-01 7.5133368442544160e-02 -1.5098856391057766e-01  -9.1497553509529608e-02 3.9327710489931150e-01 -9.7042160704114158e-02  -1.9345168409933867e-02 -4.8349562613052031e-02 -9.2431653464913568e-02  -1.7526530694032108e-02 -1.5699484231408026e-01 -1.1951462704870347e-01  -2.2415677332147058e-01 -3.2225203113435752e-01 2.0427386950691389e-02  -1.7890330912232391e-01 6.2388733873602595e-02 1.2943639314253652e-01  -9.6579140457153989e-02 -9.2608471661912717e-02 -1.9067898031896383e-01  1.6243780153934714e-01 -3.0293456166297614e-02 -3.5731923152914119e-01  3.0448423757487283e-02 6.3628663271102837e-01 -1.0967214098088730e-01  -3.5971621424404532e-01 4.0613284594411048e-01 4.1535388850077931e-02  1.9948482096967032e-01 1.5214945998190002e-01 -1.2877388144540451e-02  -8.6177851643344502e-02 2.9428231131882371e-01 1.3999113051279752e-01  -6.1868484497007999e-02 -5.5081797022393048e-02 1.8235777225041999e-01  3.4035109823516874e-01 1.9011737458244757e-03 -7.3846973665296869e-02  5.7067265825396042e-02 7.3097830773515157e-02 -2.2791144669616345e-01  -2.3870431570996639e-01 6.5144559126684666e-03 3.2604196397629498e-01  -1.1697263095433988e-01 -2.8728861654346155e-01 1.8372932448545456e-01  -1.7504233874899439e-01 -1.2119688211503103e-01 -1.0326392873886937e-01  -3.7517370171099095e-02 -1.0169668886406261e-01 5.3465808539512171e-03  3.7045547787364429e-02 4.1363104670340774e-02 9.1105791468515537e-02  -3.2844047361858797e-01 3.7604152866994045e-01 2.5038886292457908e-02  5.0498523636287762e-02 4.3486426161118169e-01 8.4472233099905314e-02  9.3976924253060506e-02 8.2914389632808810e-02 -1.8678563429620099e-01  -8.0102141848091668e-02 -1.6216607498821078e-01 -3.3020587644344789e-03  9.8165144168106022e-01 5.7642474556773508e-02 3.9450777111606550e-01  5.2595951130741614e-01 3.8468799951700203e-02 1.9370564326249745e-01  -1.4042218512982849e-01 5.0660493376353277e-01 1.0446465396097322e+00  -3.1619873993007808e-01 3.4334682379881259e-01 -2.7048550971915236e-01  4.7031343410896748e-01 -6.5273524109348269e-01 -3.6960106487043187e-01  -4.1801299157473287e-01 2.6334024898465086e-01 -1.0245239611552039e+00  -4.0814798612313924e-01 -3.1982773300076345e-01 -1.8365755441943327e-01  -3.6555224941930586e-01 -2.0957576810756687e-01 -2.8080298820573379e-01  -1.3390442178764167e-01 -3.1401395138638724e-02 1.3146852622352181e-01  -6.1944732706170047e-01 7.2572551615847536e-01 1.7937152569474448e-02  -4.8259814423739966e-01 2.6245367394868313e-01 5.6537733977119697e-01  5.8032685091185776e-01 3.8733980752953967e-01 5.2764009024553860e-01  -9.0048434078871920e-01 2.4674445646245394e-01 4.9088961501404699e-01  -8.0888948412392170e-01 -4.7696584908747347e-01 -2.7719247807498815e-01  -1.9610952448296270e-01 7.1742465710488992e-02 -1.4898306739023570e-01  -5.3232299870616506e-01 1.0190109076463378e+00 3.5040516598493693e-01  -1.7899708452263505e-02 2.8299109066037953e-01 3.0460558310242630e-01  -2.8665245732373967e-01 3.4895796711478849e-01 -3.1867559848699051e-01  -6.9109350061911656e-02 7.5301642394254287e-01 -2.7828286019266724e-01  1.0490962263031324e-01 1.0820623801283300e+00 6.1693764947070595e-01  4.5984573052727978e-01 -2.2226317510865290e-01 -7.3141256379210068e-02  3.0266893518159910e-01 -6.2592232901201361e-01 -7.2003943381441415e-01  8.4288019542923076e-01 2.7668265427740577e-02 -2.6406727716634593e-01  -4.4129874125510725e-03 3.9973682239614022e-01 3.3153814623211347e-01  -3.3970884272539665e-03 2.6371598097680854e-01 9.8415953696939118e-02  -8.0037869986071940e-03 2.0932865014030075e-01 -1.6088715302723203e-01  1.0672724887549835e-01 5.8765087843795784e-02 6.1270631164140735e-02  -2.7331635895977285e-02 3.1665616737534463e-01 -2.2979759975472767e-02  6.3459120831330816e-03 1.9962867790576250e-01 2.0775816869914962e-01  -7.7526776642150965e-03 5.4662570223177755e-02 1.5501159254344782e-01  -1.5695860845144397e-01 9.4168257187550536e-02 -8.9359472703358353e-02  3.8908244224850973e-02 4.3875728615616574e-02 -1.8003037192910903e-01  -9.6241815014304344e-02 2.4250921240428400e-01 3.8046874229619873e-02  7.1413036775141081e-03 -7.7304154503514300e-02 -3.3191259076178047e-03  -1.2028555387148369e-01 -4.7519299961541622e-01 7.4881886748475845e-02  -1.2059714315776892e-02 -1.1928555730410799e-01 -2.2585292964535322e-01  -9.4990002992592151e-02 -2.4823455093871724e-01 -2.2000573209092139e-01  -5.7971593400043063e-02 2.4648461936434765e-01 -8.0271668387318484e-03  -5.9804308498856276e-02 -1.5543901183550876e-01 1.8901481008913792e-01  1.1201693948306661e-01 -1.4088197103216363e-01 8.9631378635936981e-02  -1.4711671333646931e-01 1.4470207624368570e-01 2.3864810204209577e-01  -2.5089503746022809e-02 -1.5585311378402988e-01 9.1253183538574548e-02  -4.3653007838761748e-02 1.9515516975585772e-02 8.7702640436198021e-02  1.0176401086816889e-01 1.0537370228852570e-01 9.3900473643987570e-02  2.1184808824921297e-01 7.2820125478948713e-02 1.7011424212254680e-01  4.6495499445925779e-04 -1.4563278227017273e-01 -3.3828450438609506e-02  -3.5355105325034952e-01 1.8713603523973249e-02 2.0592787491271532e-02  -1.6926700022239313e-01 -3.1527874522659310e-01 6.9810646663522449e-02  6.4975710423358271e-02 2.7736983136583768e-02 1.0556829181570805e-02  -1.5065274846300378e-01 2.5092727388872421e-01 -1.5638666538377999e-01  7.4474594616324621e-02 -1.6243450934720538e-01 5.3750240399277227e-02  -1.2047100332102482e-01 -2.1547778066902307e-01 -3.1638515888374519e-02  1.4423260251985162e-01 3.2195682644656339e-02 -1.0740779139993342e-01  1.0519606359922604e-01 2.0645032315892992e-01 -3.0377862209364226e-01  1.0245860517075100e-01 6.7754248542033838e-02 -1.0637659675639648e-01  1.7202601625763182e-02 9.5935165034520001e-02 -2.0135535006598707e-01  1.2926035567692548e-01 -6.3686194098908883e-02 -3.5450748818366734e-01  1.4412825649103367e-01 1.6906339673908224e-01 2.0592678640868328e-01  -4.2049727354552596e-01 -1.2202458346224630e-01 2.9741854561455661e-01  -3.5173838374152094e-01 -1.2397556594936553e-01 -1.0243986900247826e-01  5.4602208927030391e-03 1.3830839857849783e-01 8.7165246867419985e-02  -5.0392478972752686e-01 2.2826854274965233e-01 1.5090602279541801e-01  -1.8744019487729163e-01 1.1963041370034767e-01 -7.6161727102029189e-02  -1.1389267108696700e-01 -4.0893684707389872e-03 -8.5274030296162776e-02  6.6305879190639905e-02 -2.4219628276475447e-01 3.8292257202325330e-01  1.4068987980711337e-01 -6.8610393503219833e-02 3.1517572228985347e-01  2.4739154559524631e-01 4.2686971911384222e-02 7.6597858621706927e-02  2.4369294546079362e-01 -1.3493728148440423e-01 3.1975217598046404e-02  3.3923333517002696e-01 -1.0744122903363164e-01 3.8070793956424664e-01  1.0583908774880729e-01 1.2444158801894913e-01 5.4101941752689793e-02  2.7222292961060397e-02 -2.9236934564541739e-01 -1.5563548961303239e-01  1.2234661321812770e-01 -1.7833173074587685e-01 1.2605481306504959e-03  -9.9612678646287575e-02 8.8601959055263094e-02 2.1757443146894490e-01  -4.2281879213372336e-01 1.8810836877373813e-01 1.2845301860585259e-01  -2.8551226191275914e-01 5.4184205545440955e-01 2.0513597390464183e-01  2.1612171201027475e-01 -1.6171311887441978e-01 1.3788120631293674e-01  -4.1182296844862812e-02 -4.6865514615694071e-01 -4.8816980790096443e-02  -1.1242341967321097e-01 -2.4724569876851904e-01 -5.7799500513972681e-02  -3.6745063242817472e-01 2.8317040642782582e-01 -3.0440243917147775e-01  -4.4115881066837441e-02 4.9809219985732955e-02 2.6280330871813633e-02  -6.4953911065192868e-02 -8.6657240726498039e-02 4.5025306185977630e-02  -1.5550154425024287e-01 -2.3664909629900377e-01 -4.4199944273044467e-02  4.9743624676957088e-02 -2.3505007824554055e-02 1.4469665695831899e-01  4.0787594437941360e-02 1.3233894591897585e-01 3.2401300210433953e-01  1.8280602156934853e-01 4.0892216532413374e-03 4.0809145367443539e-01  2.2338642978063403e-01 -5.5408481613655344e-02 3.9061698655968335e-01  -3.4759830261896102e-01 1.6012104708164066e-01 -1.9899833404937790e-02  -2.9357449794980200e-01 6.5866867355228190e-02 -4.0950336939491239e-02  5.3751015525903827e-02 -2.3540241241053797e-01 1.2803797146008641e-01  -1.4691631900313903e-01 -7.5426852994960200e-02 5.0166393105930990e-04  -1.7136296961387951e-01 7.9128923961885159e-02 -1.2433027426629348e-01  -4.0709838294007927e-02 -1.6882586311329983e-01 -1.0153933322539341e-02  2.1780280150137440e-01 -8.1829196827040655e-03 3.4243883006872999e-01  -1.5926702541731466e-01 -2.8804525811855319e-01 7.0511112156783670e-02  -3.7887123737044945e-03 1.2953138713595630e-01 -1.6283603945670241e-01  -3.2744942946820715e-01 3.0072257386299389e-01 -7.1063397414760310e-02  -2.5072312754323189e-01 5.3431159273988879e-02 2.7431698892342110e-01  -2.6222603258123500e-01 -1.9646946765940494e-02 3.1888184725642571e-01  -1.4042278367145461e-01 2.2595253613572056e-01 -5.9500653103238599e-02  -2.7153684885551344e-01 1.5903666852599774e-01 -1.6317582748148673e-01  -3.1503307200118602e-01 -2.0781716593939575e-01 -8.2055253493415983e-02  -2.3331806406752703e-01 -1.6018802260944201e-01 6.2272384888145904e-02  -2.1123737977569129e-01 2.3163295073717650e-02 1.4524045699974045e-01  2.1978956676227060e-01 -3.7434494477921898e-01 2.8853512689846217e-01  4.6619561623464603e-02 -1.1567113331411562e-01 1.0071207863600362e-01  -7.1470796149275193e-03 -4.2754059555075352e-01 -4.3094177725285225e-02  2.5106577086391491e-01 -1.5135257687087575e-01 -8.2144890968219045e-02  4.5464977361552134e-01 9.6436511050509762e-03 -2.0230056158841289e-01  -7.9527521221251188e-02 -8.5257506067459396e-02 2.6820267283630513e-02  -2.0910401225923006e-01 1.4794435159836586e-01 -1.0768351451381482e-01  -1.5485196529144490e-01 1.9430276145261591e-01 -1.5988329416409913e-01  -5.6947168281642653e-03 1.3615650075775676e-01 -9.4995292949811974e-02  -2.0821273641932453e-01 6.0681159927049328e-03 -4.4455299282006111e-01  -5.3545797246612091e-02 -1.2564349841456840e-01 -9.5323705508432721e-02  1.5906263565421541e-01 -1.7367238099283125e-01 -2.8357844219651901e-02  -3.8761523623843733e-02 -1.9000773124959233e-01 -5.8492899870661606e-02  -2.2754766361966502e-01 -6.0371104409533832e-02 -9.6703233288394266e-02  -3.4191725030259357e-02 -7.3863470164029299e-03 -2.0502836356067761e-01  -1.5664739175732145e-01 -7.5858368420513314e-02 6.3349535920343397e-02  1.1689638874591816e-01 -1.4818490899134285e-01 3.1595607244015395e-01  2.4509507901968661e-01 -6.9533288109754648e-02 2.2749202594201862e-01  2.3275115021887074e-01 -7.8570865229563274e-04 -6.0111190542059774e-02  -3.1128025250086074e-02 2.8052263724580192e-02 -1.3663726742024090e-01  -3.5023662119199794e-01 -1.2584246375840247e-01 -6.2031343873192764e-02  -7.2107996537270735e-02 4.0697955808485321e-02 2.8304462838427028e-02  -4.5589565726045958e-02 -7.8029111130672471e-02 -4.2741770435237976e-02  -2.5045862523722810e-02 -1.2520206203790747e-02 -4.0748487581808684e-02  -5.7105830650810867e-02 -7.9068195273590200e-03 5.8677101367828064e-03  2.7168819242036655e-02 -1.6340318877019023e-02 4.5716310565185228e-02  1.3074023371361443e-01 1.9993971865924165e-01 -2.1959426219987532e-01  2.0373646533474515e-01 1.1056082358312110e-01 -1.7236872850069834e-01  1.4899644164654383e-01 -1.3832651799666612e-01 -1.8991475598457180e-01  4.7552444491865964e-02 5.0720821308934731e-02 -1.8368259365573197e-01  -7.2933739647002407e-02 -1.4569028905240963e-01 -3.9905086968182110e-03  -2.3214133185953958e-01 -1.6723273325541507e-01 2.2184040787349371e-01  -1.4418801825012267e-01 -3.8041201046538659e-02 1.2760004474925604e-01  1.2725516254849567e-01 -2.0237588666005527e-03 -1.5014847572234905e-01  -3.5718274611861667e-02 -1.5305607476640315e-01 -6.3336333617936086e-02  2.3826788098363824e-01 -4.1681284445112252e-02 -1.9115702962758757e-01  -2.5072106337513611e-02 4.6270570173589121e-01 2.6055085255358007e-01  -4.1554955698397528e-01 3.1869071298977025e-01 2.7535966491342340e-01  -1.6700205417877464e-01 -6.1098186571380768e-02 -2.9845470794562928e-01  -4.0817141190724993e-02 -5.1077278086578151e-02 -1.7903866820347727e-01  -1.8525912109211837e-01 -9.1552402193276552e-02 -7.6366774677120608e-02  -3.1902513502727226e-01 -1.6604715883803320e-01 1.2487850551280542e-02  -1.3885220411997640e-01 6.3644134596430021e-02 3.9391333356484237e-01  1.1472737140119557e-02 3.1209477517955964e-01 1.0591044195025712e-01  -4.2987757842962426e-01 4.5311112706754371e-02 -1.0791954732980563e-01  -3.4254090996605308e-01 -2.3611813069944934e-01 1.4973159990305926e-01  -2.5511027933329006e-01 -4.0076578027002008e-01 2.2524964090934709e-02  1.1844883477398206e-01 4.0909240311009842e-01 5.0699774361220536e-02  -1.1021813766474239e-01 8.3130476124177177e-02 -9.5165618694652232e-02  -3.0844231205354639e-01 6.9908835689858484e-01 9.9120101170303821e-04  -5.3381807792897196e-01 2.8805214959057784e-01 -1.1181801785239320e-02  2.8337782989902318e-03 1.2133447483906473e-01 -1.1101487574570459e-01  -1.4871332215268426e-01 -5.1640761135555380e-02 -3.1954976882361985e-01  -7.0576817197604003e-02 1.4704642133355814e-01 4.1156366092772695e-01  1.4366218067380054e-01 -9.5530823292682893e-02 2.3124496931470753e-01  6.5001806795779049e-02 -1.2398328548790233e-01 -9.2019763341644155e-03  3.5912706044946827e-02 9.6638876831156170e-02 -9.6574806105156286e-02  3.1764377843635411e-01 1.8428809607392019e-01 -1.0075220020705675e-01  2.8613126324732235e-01 3.4469575528435270e-01 2.0324149948031187e-01  3.2580578080860079e-01 -1.2202741022172557e-01 4.4278737297939644e-02  2.7532427621892359e-02 -2.7612993877163039e-01 1.7665795311310087e-01  -7.8318403095246389e-02 3.1333954446182249e-01 -1.4184936675706872e-01  6.3854975219054061e-02 -1.3393883585295277e-01 8.0894669131704728e-04  1.1895536530458285e-01 8.5876477186532338e-02 1.4300325437233274e-01  1.4346900785073052e-01 -1.5580405542433043e-01 3.1683992381629791e-02  -1.9670919778177653e-02 1.1593840552679907e-01 3.1840968060863195e-01  -1.1914123328460889e-01 2.8336932565269179e-01 3.4981838178609848e-01  4.1047239458239487e-02 1.3381108493335805e-01 -1.1508275996236830e-01  6.5689334342572014e-02 -1.7024312571572622e-02 -6.6322882205367320e-02  1.8544535588598954e-01 -8.9980225254300231e-02 -1.0127564483604549e-01  1.0993737996617824e-01 -9.3941292918310076e-02 -1.6187114498992131e-01  -1.1876078761754580e-01 1.7541090229064898e-01 -5.9847675196622187e-02  -2.6962264855827794e-01 2.9547893126718527e-01 2.4605279420872536e-01  -1.4279793739958260e-01 6.1559681906312579e-02 1.6762427807472122e-01  1.4662208490594059e-01 4.3500991426078947e-03 2.3666786576387316e-01  -8.5344373422755679e-02 8.3737063850991458e-02 2.7659224414719608e-01  -2.8563936110500121e-01 9.0473383866483389e-02 3.4973702613921870e-01  -4.8179275591125580e-02 9.6474118039067011e-02 1.48051426994