<?xml version="1.0"?>
<VTKFile type="UnstructuredGrid"  version="0.1"  >
<UnstructuredGrid>
<Piece  NumberOfPoints="3594" NumberOfCells="14547">
<Points>
<DataArray  type="Float64"  NumberOfComponents="3"  format="ascii">0 0 -4000  0 250000 -4000  250000 0 0  250000 250000 0  135000 0 -60000  135000 250000 -60000  250000 0 -60000  250000 250000 -60000  65308.5 173604.8 0  78441.2 185529.2 0  65707.89999999999 168017.6 0  73555.60000000001 174095.8 0  61257.8 157386.9 0  65291.6 154352.5 0  82112.3 172814.3 0  58804.1 138685.6 0  106822.8 190893.8 0  60152.4 136426.2 0  144960.9 230041.9 0  88660.10000000001 163931.9 0  134829.2 208246.3 0  82409 149993.8 0  65214.4 127836 0  67249.7 122418.9 0  91916.7 141284.3 0  125498.1 99698.5 0  111195.9 162013.4 0  92905.39999999999 131283.2 0  77176.5 109747.4 0  90809.3 124059.5 0  107806.1 141615.9 0  104439.5 126126.3 0  137051.8 160541 0  118095 132800.4 0  82238.39999999999 90851.5 0  84123.2 92291 0  98197.5 105309.4 0  105163 104713.8 0  154799.8 153672.9 0  133655.9 122823.1 0  111467 94557.3 0  106995.1 77971.8 0  149450.7 123239.8 0  192061 157764 0  133903.2 45232 0  140000 0 0  136000 250000 0  9714.285714284615 250000 -3714.285714285747  19428.57142857481 250000 -3428.571428571329  29142.85714285597 250000 -3142.857142857177  38857.14285713715 250000 -2857.142857143025  48571.42857141832 250000 -2571.428571428873  58285.71428569948 250000 -2285.714285714721  67999.99999998066 250000 -2000.000000000569  77714.28571426184 250000 -1714.285714286416  87428.571428543 250000 -1428.571428572265  97142.85714282417 250000 -1142.857142858113  106857.1428571053 250000 -857.1428571439606  116571.4285713865 250000 -571.4285714298085  126285.7142856677 250000 -285.7142857156564  250000 240000.0000000016 0  250000 230000.0000000032 0  250000 220000.0000000048 0  250000 210000.0000000064 0  250000 200000.0000000079 0  250000 190000.0000000095 0  250000 180000.0000000111 0  250000 170000.0000000127 0  250000 160000.0000000143 0  250000 150000.0000000159 0  250000 140000.0000000175 0  250000 130000.0000000191 0  250000 119999.9999999916 0  250000 109999.9999999825 0  250000 99999.99999998408 0  250000 89999.99999998568 0  250000 79999.99999998725 0  250000 69999.99999998885 0  250000 59999.99999999045 0  250000 49999.99999999205 0  250000 39999.99999999366 0  250000 29999.99999999526 0  250000 19999.9999999968 0  250000 9999.999999998399 0  130000 0 -285.714285714285  120000 0 -571.4285714285701  110000.0000000001 0 -857.1428571428546  100000.0000000001 0 -1142.857142857139  90000.00000000017 0 -1428.571428571424  80000.0000000002 0 -1714.285714285709  70000.00000000025 0 -1999.999999999993  60000.00000000026 0 -2285.714285714278  50000.00000000023 0 -2571.428571428565  40000.00000000019 0 -2857.142857142852  30000.00000000015 0 -3142.857142857139  20000.00000000009 0 -3428.571428571426  10000.00000000004 0 -3714.285714285713  0 9999.999999998096 -4000  0 19999.99999999726 -4000  0 29999.99999999545 -4000  0 39999.99999999275 -4000  0 49999.9999999912 -4000  0 59999.99999998965 -4000  0 69999.99999998808 -4000  0 79999.99999998655 -4000  0 89999.99999998501 -4000  0 99999.99999998347 -4000  0 109999.9999999819 -4000  0 119999.9999999804 -4000  0 130000.0000000079 -4000  0 140000.000000017 -4000  0 150000.0000000155 -4000  0 160000.000000014 -4000  0 170000.0000000124 -4000  0 180000.0000000109 -4000  0 190000.0000000093 -4000  0 200000.0000000078 -4000  0 210000.0000000062 -4000  0 220000.0000000047 -4000  0 230000.0000000031 -4000  0 240000.0000000016 -4000  134615.5786831678 8376.221222376078 0  129135.8381374389 16690.61556165003 0  123693.3119097638 25029.34528065769 0  118458.7304757098 33499.41630675747 0  114183.5561631282 42453.40693221996 0  117152.9012549134 51656.5775220433 0  109640.5189223821 56772.26946740811 0  99783.22349336625 58163.79074226946 0  89906.64048415456 59427.041153887 0  80231.83368741472 61714.93090982783 0  73457.07599492084 68333.04562829909 0  74666.1562536891 78126.62096439983 0  77477.57171300898 87678.05180735435 0  78461.83411646895 97534.63399308435 0  75049.04009726809 106816.2708870931 0  69538.50964765088 115103.6313494232 0  63598.75337311435 123095.8011052612 0  58118.08704720287 131402.6075281692 0  54672.56885839759 140685.5429709587 0  54507.01644649181 150612.6283068675 0  56360.01451579022 160386.8607035369 0  59277.85033353963 169905.2699317088 0  62638.60576621335 179274.2426304358 0  68212.99295126265 187459.3754999009 0  75814.40529046141 193858.3467082375 0  84761.00503602097 198204.6515231062 0  94061.92665129391 201734.182040823 0  103676.4565927747 204325.1412130333 0  112974.540309108 207830.3235759034 0  118972.4630267572 215380.3369922852 0  120264.8170507578 225241.997356352 0  123444.1757132735 234565.2722630062 0  129527.245366261 242435.1534677757 0  250000 250000 -9999.999999997535  250000 250000 -19999.99999997662  250000 250000 -29999.9999999377  250000 250000 -39999.99999995799  250000 250000 -49999.999999979  250000 240000.0000000016 -60000  250000 230000.0000000032 -60000  250000 220000.0000000048 -60000  250000 210000.0000000064 -60000  250000 200000.0000000079 -60000  250000 190000.0000000095 -60000  250000 180000.0000000111 -60000  250000 170000.0000000127 -60000  250000 160000.0000000143 -60000  250000 150000.0000000159 -60000  250000 140000.0000000175 -60000  250000 130000.0000000191 -60000  250000 119999.9999999916 -60000  250000 109999.9999999825 -60000  250000 99999.99999998408 -60000  250000 89999.99999998568 -60000  250000 79999.99999998725 -60000  250000 69999.99999998885 -60000  250000 59999.99999999045 -60000  250000 49999.99999999205 -60000  250000 39999.99999999366 -60000  250000 29999.99999999526 -60000  250000 19999.9999999968 -60000  250000 9999.999999998399 -60000  250000 0 -49999.99999997466  250000 0 -39999.99999999574  250000 0 -30000.00000007532  250000 0 -20000.00000005069  250000 0 -10000.00000002534  240416.6666666667 0 -60000  230833.3333333333 0 -60000  221250 0 -60000  211666.6666666667 0 -60000  202083.3333333333 0 -60000  192500 0 -60000  182916.6666666667 0 -60000  173333.3333333333 0 -60000  163750 0 -60000  154166.6666666667 0 -60000  144583.3333333333 0 -60000  240416.6666666667 250000 -60000  230833.3333333333 250000 -60000  221250 250000 -60000  211666.6666666667 250000 -60000  202083.3333333333 250000 -60000  192500 250000 -60000  182916.6666666667 250000 -60000  173333.3333333333 250000 -60000  163750 250000 -60000  154166.6666666667 250000 -60000  144583.3333333333 250000 -60000  135000 240000.0000000016 -60000  135000 230000.0000000032 -60000  135000 220000.0000000048 -60000  135000 210000.0000000064 -60000  135000 200000.0000000079 -60000  135000 190000.0000000095 -60000  135000 180000.0000000111 -60000  135000 170000.0000000127 -60000  135000 160000.0000000143 -60000  135000 150000.0000000159 -60000  135000 140000.0000000175 -60000  135000 130000.0000000191 -60000  135000 119999.9999999916 -60000  135000 109999.9999999825 -60000  135000 99999.99999998408 -60000  135000 89999.99999998568 -60000  135000 79999.99999998725 -60000  135000 69999.99999998885 -60000  135000 59999.99999999045 -60000  135000 49999.99999999205 -60000  135000 39999.99999999366 -60000  135000 29999.99999999526 -60000  135000 19999.9999999968 -60000  135000 9999.999999998399 -60000  9760.266420117418 0 -5952.053284023483  19520.53309387125 0 -7904.10661877425  29307.1102415074 0 -9718.421407375839  39104.7333719938 0 -11473.30036109216  48875.83924532436 0 -13369.19882213981  58571.87012930932 0 -15613.67939664691  68124.11986543986 0 -18408.53002372226  77527.76485865096 0 -21667.33907869995  86719.09466349281 0 -25482.98540480309  95631.92793098884 0 -29908.59492259344  104180.5528547143 0 -35003.66989024555  112449.6580983703 0 -40542.62450796275  120509.52686276 0 -46382.42388125008  127994.6878848568 0 -52930.54997290741  9760.266420117418 250000 -5952.053284023483  19520.53309387125 249999.9999999999 -7904.10661877425  29307.1102415074 250000 -9718.421407375839  39104.7333719938 250000 -11473.30036109216  48875.83924532436 250000 -13369.19882213981  58571.87012930932 250000 -15613.67939664691  68124.11986543986 250000 -18408.53002372226  77527.76485865096 250000 -21667.33907869995  86719.09466349281 250000 -25482.98540480309  95631.92793098884 250000 -29908.59492259344  104180.5528547143 250000 -35003.66989024555  112449.6580983703 250000 -40542.62450796275  120509.52686276 250000 -46382.42388125008  127994.6878848568 250000 -52930.54997290741  145499.999999982 250000 0  154999.999999964 250000 0  164499.999999946 250000 0  173999.999999928 250000 0  183499.99999991 250000 0  192999.9999998977 250000 0  202500.00000009 250000 0  212000.000000072 250000 0  221500.000000054 250000 0  231000.000000036 250000 0  240500.000000018 250000 0  240000.0000001065 0 0  230000.0000002129 0 0  220000.0000003194 0 0  210000.0000004258 0 0  200000.0000005323 0 0  190000.0000006387 0 0  180000.0000006325 0 0  170000.0000004744 0 0  160000.0000003162 0 0  150000.0000001582 0 0  81541.63335874674 35498.13281562441 -1158.202651726381  46004.68664141578 194254.3443995834 -2060.726341037222  32687.99629987251 175105.6839569158 -2219.415882311186  36663.59507600099 63079.34846719183 -2167.093431592842  52002.09530018299 134928.3526843132 -266.7613614382204  59599.13772899003 109177.3480854863 -691.4602217251189  13806.90843888927 84795.87142461444 -3288.608480833754  42042.1003123136 65482.76889364541 -1784.344992951069  85917.78356508871 211210.3489857896 -1084.187284676976  26344.15959288631 140617.4121347481 -2112.437398247788  49350.86723141051 36336.78604214006 -2272.704599832591  21702.40331646254 119880.0690882354 -2466.437976166102  57313.56589490068 220733.4025395545 -2090.49117424689  28866.73893404105 218351.493928639 -3037.311471166797  64300.33793173476 48969.94193502321 -1793.328299662734  52482.25996720623 28090.02703717845 -2196.191483315934  63095.9704402233 54899.2587271606 -1627.600015239288
[...]
<PointData  Vectors="sample_prior"> 
<DataArray  type="Float64"  Name="sample_prior"  NumberOfComponents="3" format="ascii">-3.3707033101079981e-01 3.1144125529904365e-01 -5.3415100634192669e-01  2.6421977167088007e-01 -7.4197948074650105e-02 -1.2071911479796893e+00  -1.8952482219478092e-02 -4.5118771810771280e-01 -2.2281605411178768e-01  2.5922821608380431e-01 2.2897509017577217e-01 -1.1162547202292609e-01  1.7063430209693223e-01 -3.8547582328011548e-01 6.0786424866616351e-01  1.1605004349806558e-01 -4.0865296255383671e-01 3.2470600777502745e-01  -1.8758825113501398e-01 -3.5084766342954953e-02 9.1723439593774658e-02  3.4302434446092750e-01 -3.8827851881309267e-01 -3.9994552558585023e-01  -6.0253148711218139e-02 -1.1605353581422374e-01 9.2757499463455070e-03  1.5775887093338707e-02 -1.1430154934341449e-01 8.4128479452326377e-02  -6.4681572987490776e-02 1.9146550429081848e-02 9.4035361199831316e-02  -2.2470014190406215e-01 -1.7870893587371814e-01 1.5152790129253563e-01  -1.2526570467405806e-01 -5.3639928083889905e-02 2.3925335557165223e-01  4.9831869535211799e-02 -1.1655903093126249e-01 -4.3968377213113148e-02  7.5806675461562764e-02 -9.3881104396715501e-02 1.2941683743634668e-02  1.8376401628212102e-01 -1.8788191941174461e-02 3.0246323253715968e-01  -4.3657191849702071e-02 3.3502112083029459e-02 -1.3426357060525956e-02  3.0579151286886908e-01 -9.5398579007728135e-02 2.2523127362289780e-01  9.4325528812094606e-02 -1.6066200712749665e-01 -9.8243516658347671e-02  7.0284795044146225e-02 -1.0219958432202253e-01 -1.5468637329707846e-04  -9.8023158947706159e-04 -1.9263239194044501e-01 2.3939229239463788e-01  2.4168029071017350e-01 -3.7151168178374584e-02 -1.3779892415725445e-01  -2.6589968938892240e-02 1.6316848019048372e-02 -1.3014841237357022e-01  4.3839860667699466e-02 -2.1109987062851646e-01 -7.3200848103179367e-02  -4.6398563490972503e-02 1.8731083233963991e-01 8.6694770726142951e-04  2.1640074370604101e-01 8.0930784490943181e-02 -1.7751825929958633e-02  -1.6994648918179769e-01 2.2732631920775523e-01 5.0149109276464009e-02  -1.1074558001986221e-01 6.9993415207319790e-02 2.8913006873583259e-02  -4.0031321144496601e-01 2.3321521360302794e-01 1.7302317273168810e-01  4.9223018450815628e-02 1.6423570081960470e-01 -4.6430155743849177e-02  -6.1801402725463896e-02 -2.2793309617763008e-01 1.1643956870540892e-01  8.5069491371934786e-02 1.1995893644744016e-01 6.0427558781307920e-02  4.2211467915677793e-02 4.3360235796167290e-01 -3.3839673423550855e-02  -4.5713594629712882e-02 -1.1526349881208466e-01 -1.2862591096001208e-01  -3.3541168729711274e-02 7.8387117284416191e-02 -1.3171143725994933e-01  -5.9496958964239892e-02 7.1961114958963984e-03 -2.3543647416871177e-01  3.0284588080878694e-01 -7.6091213969528185e-02 -6.8237872060407892e-02  -1.5201029402940736e-01 1.1255865028724435e-01 -1.0400395961331002e-01  1.3049936146211366e-01 -1.4143549578876188e-01 2.7064697834809176e-01  -1.4623677151957276e-01 2.1139183124046679e-01 8.2492903606542767e-02  3.4700008933308095e-02 -5.2318951713790866e-03 2.7881375883237546e-02  3.3811884547107623e-01 -2.8835177158509175e-02 1.9062725174767822e-01  -4.7031084437788181e-02 3.0068502291972717e-02 -1.2631592768721034e-01  5.1427659463218665e-02 -6.1639901044343762e-02 8.3698112663263491e-02  -4.6499199498107817e-02 -1.8797394163001371e-01 1.0521171151562213e-01  1.4103457348447732e-01 1.7471650979652375e-02 1.4110975497232528e-01  3.1742704745724715e-01 -2.9938797867990069e-01 1.8143450420225021e-01  -4.8142516626991111e-01 -9.2749410272996678e-03 -5.4613994295374979e-01  -4.4812928442658151e-01 -7.8050631047930336e-02 -2.2761025810305352e-01  -2.2751912365805443e-01 -1.0180785531349013e-02 -1.9291647477923893e-01  -3.4754356420007484e-03 1.1899795193317353e-01 3.2985905462409554e-01  7.0655104847004199e-02 1.7231646502426373e-01 1.5006884556433741e-02  -7.7847517123196680e-02 -2.1961215189731281e-01 -2.6509826617180926e-01  1.9813084157011923e-01 -2.2088737699032762e-01 -8.3043786330301642e-02  -1.2760925477886106e-01 9.4849293832362357e-03 1.4473958525683592e-01  -7.5343616719945439e-02 -6.9389331510542093e-02 -5.4748993127557460e-02  -1.6381370067121828e-01 -2.9306489973121813e-03 -1.0568016408560658e-01  -1.2675656763630869e-01 -1.2563973168903234e-01 -3.2998559697765201e-01  -2.6074353647832038e-01 -8.0027934024361036e-02 6.6829525320251118e-02  -1.6290880446229289e-01 7.7022479202052185e-02 -2.2026873531010596e-01  -2.8065590399697615e-01 -1.7425180265365431e-03 -3.4042116555600709e-02  -6.0872198686171067e-02 6.8953577548062847e-02 2.9745410333356420e-01  -1.3120374557272119e-01 1.1014616402163989e-01 3.4408655146321070e-02  -4.3847795444938416e-03 -5.1616742849788211e-01 1.3576477354318007e-02  -1.1989697761023031e-01 -3.1419266265864149e-01 -8.0530637662986057e-02  -1.3464355020893126e-01 -9.3383198490642985e-02 7.1287528734533562e-02  -2.6515197350259623e-01 3.6165796795445092e-02 -3.4643389193992430e-02  -1.8403186696614071e-01 -3.4894920115647066e-01 1.1540433574582842e-01  4.0526499254287095e-03 -9.0159415411146845e-02 1.6853874130565577e-01  -1.7360309088391795e-02 -3.6520659565634363e-02 7.3596025557633518e-02  1.7255620569463830e-02 1.1157844757958096e-01 1.3497053921886523e-01  -3.7367355111911769e-02 2.1965699587675111e-01 1.5659722464602324e-01  -2.3977289087686895e-01 -2.6614937919470821e-01 6.0923365999277911e-02  1.6593352741486073e-01 -2.7217466899644016e-01 -8.0916348922829284e-03  3.0065928549614152e-02 -6.1665690620274743e-02 4.9220667965157415e-02  -2.0079293208237989e-01 -1.5583528626762497e-01 2.4867062783767524e-01  1.3563550953073905e-01 9.5608962762160674e-02 2.8569436537805415e-01  4.6554352811822040e-02 2.9935714048574880e-01 2.1789591256660246e-01  1.4079727955540444e-01 2.9298572533751449e-01 -1.0621982238191606e-01  -1.1430372144930337e-01 2.4100966703122270e-01 -9.7312096348167981e-02  -6.8958537221488078e-02 3.2870129992088348e-01 -2.4453666386529741e-02  -1.6705812295712073e-02 3.6972241943187090e-01 3.5568081647791083e-01  3.5181056597707278e-01 1.4420426973027711e-01 1.4968302007672088e-01  -2.1423674212211621e-01 -2.8362365384415639e-01 -2.2059785694122452e-01  -4.3036950641443100e-01 2.0244805457826309e-01 -3.8416675610849299e-01  -1.7719503754372193e-01 -2.5839392035991077e-01 1.3029296352724218e-01  3.3173897436346036e-02 -1.0848569545641853e-02 1.0708342924109414e-01  7.2048959124440912e-02 -2.3895631670078357e-01 -2.4287162849317964e-01  3.2462428106713254e-01 -9.4924911359439632e-02 -1.9876944767556456e-02  1.0094565823510801e-01 -2.0543589825290207e-01 -1.4233892375140011e-01  -3.4824434967452850e-01 4.3780819789175635e-01 -8.9417154336274535e-02  -2.0597570889253577e-01 1.3461743858179320e-01 2.3404464885511811e-01  -1.8280120053638144e-01 1.2667509016189804e-01 2.6090960573717120e-01  6.6099175146585920e-02 3.8360230716602675e-02 -1.1523890231980398e-01  -2.2075209395957607e-01 1.5063621134539421e-01 -4.8227364532207234e-01  -5.5004567704692586e-02 -2.8335111573634314e-01 -3.6818298007520239e-01  1.4588553688107797e-01 -1.4487461480243197e-01 -1.8591565905800325e-01  -2.4821107619859686e-01 3.6396957102534527e-01 4.0153032068110350e-01  -1.1106377158000600e+00 -7.0627100885687821e-01 5.6820693056332228e-01  -5.8222186634619177e-01 -6.4066267170596458e-01 4.9852140646668514e-01  5.7363624110726145e-02 -9.1167453896475970e-01 -4.0416623598935836e-01  -7.9934987715702011e-01 -5.3784287491134442e-01 -6.8894607403311436e-01  2.5293612683957523e-01 1.1164495916156603e-01 -6.2979103061947450e-01  2.9129278393878533e-01 -2.3799680122241679e-01 -2.8984583202688013e-01  6.5949421576960834e-02 -2.3331895445334694e-01 -9.5416910840869409e-02  -1.0493812095542370e+00 -1.1357594961308093e-01 1.3459902168637111e-01  -9.0346369496726375e-01 1.1434683989845572e-01 1.4066589089254325e-01  2.5299125543272394e-01 6.9407911528519023e-02 -5.4631948130704666e-01  -2.7275782740370041e-01 6.0548889372118875e-01 -7.7620176014941422e-01  -9.4890002693869613e-01 1.5409868241574468e-01 -9.5104111131372226e-01  -4.6250070181644559e-01 6.1801992524972815e-01 -3.3612914965653423e-01  -2.9830930316692483e-01 6.9977768831302223e-01 -2.8264137203830697e-01  -9.9481435132168727e-02 1.0040499877256668e+00 2.7171849202840620e-01  4.9381066871011750e-02 -3.9827256907484054e-01 1.2450825517470734e-01  -2.6891462762095075e-01 1.8926897863274988e-01 -4.2683958848471287e-01  -7.3234167731764596e-02 -2.3603596395234260e-02 -3.6159315175767544e-02  -5.4883626661855556e-01 -2.9137344302910823e-01 -3.7879064055099293e-01  2.1703916215496113e-01 -6.7623569449116849e-02 6.9572322590060137e-04  4.1206275463914421e-02 5.4887715450041286e-01 -9.0134078506347734e-02  1.1954575076952083e-01 2.9620933733291677e-01 -2.9440981275865127e-02  -4.6562859337334633e-01 8.2223936754538193e-02 -2.7254490660709857e-01  5.6776273730657932e-02 2.2313841656202665e-01 -3.1350617515022235e-03  1.6846674842519963e-02 2.7106947212086192e-02 2.2894355380711641e-02  -1.7264465961219702e-01 1.2823741378770576e-01 2.0728359825336766e-02  -1.0096720140895396e-02 1.3528447656614953e-01 5.3068283646960021e-02  -1.2682830382956270e-01 -4.4477733439852833e-02 3.4295225778374953e-02  1.3766098974601199e-02 7.6308324281499765e-02 8.7257525230563224e-02  1.7565651751102732e-01 -5.5105497189516496e-02 2.1511255194338544e-01  2.5636414267068947e-01 2.9820920817507583e-02 1.6564542498007857e-03  2.2648631361778548e-01 2.3403365340933843e-01 -7.7447801785690051e-02  3.0194511684715829e-02 1.0762108541661387e-01 1.7239478397299668e-01  -4.5888878870493137e-02 2.3611809560116334e-01 1.5104973525903320e-01  4.4236364518068914e-02 4.5799555143965900e-02 9.6975995047932362e-02  4.0829517338581131e-02 2.3393856656973154e-02 1.0714386063869188e-01  1.2580496906522985e-02 -8.9517404853831344e-03 -5.6899300301496723e-02  -3.5300380311287038e-01 1.6288911199454958e-01 1.6784548018118528e-01  1.2849965512130290e-01 -1.4371165420722382e-01 -2.6224686214230875e-01  1.2017368228928665e-02 -6.3630720967098153e-02 -1.9412744594988457e-02  1.9826864321607970e-01 -4.9201875883806305e-02 6.4586697797334919e-02  2.3559306245268291e-01 1.5416294068750705e-02 1.7277488889986914e-01  8.1972961166216843e-03 1.4349162972083412e-01 5.0985889304254413e-02  -2.0498247816112999e-01 -2.4262838034209072e-01 1.5614310857351976e-01  9.3157249819467488e-03 1.0904015879284630e-01 -2.0883566268801654e-02  1.2203234757423374e-01 -5.4744093804372965e-02 1.5952625559208913e-01  4.1687464114101819e-02 2.3028695662728138e-02 1.5550935065231072e-01  -2.6392072938978506e-01 4.4007688876754249e-02 2.8860721031983244e-01  3.6175693095911288e-02 -2.0098436783777421e-01 2.7082386335043929e-01  -1.3320100946892938e-01 -8.6878128304602356e-02 3.8073852182828632e-02  -5.4325507682223460e-02 -1.9341036295694589e-02 -3.7650459577223738e-02  -1.2156670966698304e-02 -7.7367209638336248e-03 -2.0918415886782581e-02  7.1082901650267594e-02 -1.3141325720105403e-02 9.8872525921777071e-03  -8.5701105007931724e-02 1.4650162776132281e-01 2.0063332627437436e-01  -9.7197184335853337e-02 1.2586739463397470e-01 -9.0220796418176111e-02  -1.4742994005901192e-01 -1.5119873249716695e-01 1.9468349515802402e-01  5.4519594100231389e-03 9.4176101211674024e-02 2.1244001017964265e-01  -1.5104319301921904e-01 4.7943034094860011e-02 2.2762801643857081e-02  -2.8279779082639989e-01 3.4613945243323702e-02 -3.5564159701360393e-01  -1.1813670089876277e-01 3.1675034983804806e-01 2.6042328897597545e-02  -5.6005187955178476e-02 -4.0895039270909800e-01 -1.4181515503586029e-01  2.4494910175488097e-01 -3.3707483470154576e-01 -1.4797335099872583e-01  9.6256999685273917e-02 -7.8088824208974533e-02 1.8232263998566055e-02  9.8183633994483752e-02 -2.8999302841541158e-01 -2.6333530833640728e-01  4.3944046201314001e-02 7.1182577796098613e-04 2.5846915298755202e-01  3.1623919173585274e-01 -3.7338808064287597e-02 1.1696049261533725e-02  2.1188301157826196e-02 -2.0694588848847556e-01 2.5311507506112768e-01  -4.1486579961844366e-01 -1.0958642851139383e-01 1.3526295754567405e-01  -1.1496866221140314e-01 -2.2392935280818958e-02 -7.0055437878530621e-02  1.1303273266026148e-02 -1.2023129162960858e-01 5.0193234927617336e-01  -7.3351829595917403e-03 -4.7176014342081476e-02 1.6902802252029492e-01  -8.5762780784705422e-02 -1.2260529153186746e-01 4.7994078525665305e-02  -3.8473707223439527e-02 -1.9798056130301434e-02 1.4783903518605018e-01  -2.3909255167738677e-01 -3.8724088040302573e-01 -7.6290257131992945e-02  -5.1538027444510671e-02 1.0706376722322633e-01 -2.0256194094831587e-01  1.2918419930107142e-01 1.1505035332023786e-01 -1.5017163162288055e-01  -2.6333589884289471e-01 2.0589879183386173e-02 -3.1993015875110320e-01  1.4482300866391956e-02 -2.9093114385303603e-01 9.2282117880540623e-02  -9.1428113231376298e-02 -1.7629302839984534e-01 -9.9318977298109512e-02  1.3730446122661932e-01 1.1422038810421974e-01 -1.0868384303299516e-01  3.9125714179346877e-02 3.4130346113530324e-01 -3.5051150947773968e-01  2.3521881380367776e-01 -3.6959713042420900e-03 -2.7962247384088906e-01  1.3409236878422953e-01 -2.7159171537400445e-01 1.9331903935473288e-01  -7.5677940274920466e-05 -4.9489712883407047e-02 2.9964781817016883e-01  -3.9259324071316361e-02 -8.1459007496019628e-02 -2.8649703762572576e-01  -2.3620644415341943e-01 -4.7813747174368759e-01 -1.2144111345113504e-01  -3.9230386648873444e-01 -2.3568550042004696e-01 -7.9499893329022617e-02  -3.5534367848258092e-01 -1.6079738448589795e-01 -1.5096158104683055e-01  2.3271343094634805e-01 -1.0594735543902548e-01 3.2980225933156943e-02  -5.0972774516515183e-02 -6.6507972265504534e-02 -8.8793502368044452e-02  -4.2928112991065481e-01 -3.8415981011519329e-01 -8.4583555650640907e-02  -3.4487689747420941e-01 -2.9208443588100613e-01 8.6430127545987293e-02  -2.2927028294447271e-01 -1.1217655819802609e-01 -1.0107287239924001e-01  -3.5366390943766374e-01 -2.4934341109762623e-01 -1.2772892095267799e-01  -3.7800292063072655e-01 -4.5288486086421076e-01 -1.0992483699841263e-01  1.8564996279763618e-01 6.4310882434269634e-02 -1.9711381625138441e-01  -9.4729650429865482e-03 1.5794459133241931e-01 -1.7287411830003697e-02  1.8434911067857535e-01 -1.5221719816783189e-01 2.9974814265209624e-02  2.9183633199451248e-01 -1.6987672620948688e-01 9.6989993076677952e-02  -1.7392277378902082e-01 2.6045763274597861e-01 -2.5123029980338552e-01  -1.2905278550833124e-01 -3.7094810950584645e-02 -3.0363132844611446e-01  -4.6459049339330698e-02 9.3736326222147920e-02 2.5519428220495188e-01  -2.0339666599693107e-01 3.4332973256335014e-01 1.3673306684149143e-02  7.1617386726028825e-02 2.9826267917412941e-01 4.1700129381165803e-02  3.8198098909296443e-02 -3.0873051859021788e-01 3.5090896425549497e-03  -1.9946282992147757e-01 -2.2405730103360022e-01 -8.5404705555006316e-02  -6.8757705897373933e-03 -1.3836980483115940e-01 3.8093350252879171e-01  2.0391376536138879e-02 2.0334893601135270e-01 -1.8021165218058968e-01  -5.8452224523245264e-02 8.0107027531378036e-02 -3.7577067834264544e-01  1.3844359964246078e-01 -1.0066745539838204e-01 -2.4509305590065092e-01  1.1111983887886019e-01 -2.1425419087988944e-02 -2.4104864530163353e-01  2.6710982160744662e-01 -2.7582528290360142e-01 3.1583382724782955e-01  1.2307844952153889e-01 1.1622365287147214e-01 1.5535960668422794e-01  9.8288382255017750e-02 7.6856318522429287e-02 -1.8406363854680731e-02  -1.0345859296885986e-01 1.3004139514277563e-01 3.1844643573024722e-01  -1.6818056436612652e-01 1.1955754465292366e-01 -1.6244695965953651e-01  5.8808334866791233e-02 1.5520049967510960e-01 -1.8058623747333136e-02  2.7268827908209908e-01 2.2556709639361839e-02 -3.3597112030284643e-01  4.1228304557457807e-01 -1.5230344663597636e-01 -6.1540621922212824e-02  3.4397047656622481e-01 -2.0449014944134589e-01 -6.4208870581266717e-02  1.2506559397426756e-01 1.0936746481053704e-01 -9.0123867924509035e-02  4.2231781735539875e-01 -9.5165353814237241e-02 2.0130916972430864e-02  8.5384379178049322e-02 -1.2900030316689523e-01 1.1467116605557189e-01  -1.9206501211753169e-01 -5.6009707695728543e-02 4.5890062587051229e-02  -1.3592773018449589e-01 -6.9386572859773996e-02 -4.2767244691034982e-02  -3.7947317785420343e-01 -2.5059629126651769e-02 -1.7150978303372294e-01  -3.5942544482082012e-01 1.1708947485320902e-01 -4.0492377699803961e-02  6.1425190744450700e-02 -5.0450750613983485e-02 1.6475188111623831e-01  -9.8745337407178016e-02 -8.5106892212124002e-02 -2.7867712128849242e-01  -2.1894528086064119e-01 -6.2260154669430403e-03 -1.2805082619860869e-01  1.9079063052054215e-01 -6.2735560340123286e-02 -2.2249899359431877e-01  1.2416070435314609e-01 -3.2521157280364604e-01 -1.0233682285612590e-01  -1.4731705659978450e-01 -3.8083410675857637e-01 -2.5624478440830689e-01  -7.4236167289230492e-02 -1.3914443563933662e-01 -2.3448036232862324e-01  -2.1222437594440641e-01 -2.5740919919784437e-02 -1.0550484863044930e-01  -1.8465941400528182e-01 2.3782300628344966e-02 2.0211117229225233e-02  1.2304993013538283e-01 -1.8301398594391316e-01 -1.3663028265041269e-01  -5.5040050052014643e-02 -6.2098501945420943e-02 -2.1893828058041989e-01  1.1519132019716641e-03 2.6658210896609889e-02 -1.8550153045875903e-01  3.5858476145327433e-03 -1.6124893263174955e-03 -9.2488994248087125e-02  -1.8547052697498462e-01 1.8466900072609826e-01 2.1479160488238355e-01  -2.1604690434221446e-01 9.1123802032900700e-02 1.2983858449728691e-01  -2.9551970449048777e-03 1.2606999490648971e-01 -3.3355863715296019e-01  -3.6816072361209463e-02 5.0982562914118977e-02 -5.3923230144332715e-02  -3.2315012992682801e-02 2.8276971207027074e-01 -4.2913112794188198e-02  4.8697694406732950e-01 -8.3021832681289945e-02 -8.4136819810763722e-02  4.1174971372526675e-01 -1.5078853424319186e-01 7.0606221271619765e-02  -5.5437845744599083e-02 -2.9239641719345016e-01 3.5892568108218298e-01  -2.4515440476874539e-01 4.3997780498901493e-03 2.3848241051008878e-01  2.2869796514575996e-01 4.1448150287771490e-01 7.1923271471534311e-01  -5.0409910528468860e-01 1.0343191086892278e-02 -5.3494640538532034e-01  -4.3101900561643564e-01 -2.8759880859882271e-02 -1.9536025495707149e-01  -1.9205549055276139e-01 1.6637603028109588e-01 -2.5569227116888116e-01  -1.2761560377768544e-01 4.4305990315087092e-02 1.9771811986972143e-01  1.4082168080695285e-02 4.3614238760222013e-01 -2.6291920780308947e-01  3.5053217906139961e-01 -7.6164732431690835e-02 -2.8122643246714607e-01  -2.2452382735925033e-01 3.6820059260755267e-02 1.8409706885931604e-01  -1.4279771888108050e-01 2.1657081359780841e-01 1.1540138908771704e-01  -2.8816533797178046e-01 3.1852229025658450e-02 3.3049901345553961e-01  -7.8486284048985458e-02 1.9816730057903731e-01 2.5868296225644205e-01  3.0219797236075346e-01 -1.2799985997412416e-01 -1.7442684761794211e-01  -6.3741801931375242e-02 -1.9496735297542797e-01 -2.2590704195697950e-01  -6.3604839460560697e-02 -1.8712381367866743e-01 -9.1514822805018131e-02  1.8752285883297010e-01 2.1195221211899479e-01 -1.6830100935039269e-01  4.0562165015577983e-01 1.6631083437351551e-01 1.9057679621724744e-01  1.8373499633661267e-01 6.1084195783559087e-02 -1.6992773073179809e-02  -1.5966678885023369e-01 -9.3910672309643048e-02 8.4783537326973996e-02  -2.8299274966849697e-01 2.8537572988503498e-02 2.1083689420572488e-01  -2.0156524324281735e-01 -2.1779792160698824e-01 9.2133264223889552e-02  3.0681272537015986e-01 -2.3931600642757369e-02 -2.6261398507756328e-01  1.2224605639918239e-01 -7.3816799446492221e-02 7.3714202934029541e-02  6.3083326910864812e-01 -2.5478024558642946e-02 2.6779579774734386e-01  -1.1345536005280826e-02 -1.1199805735206715e-03 9.6476208963740734e-02  -4.5121457101200843e-02 -1.0958875675473966e-01 7.7995590460528799e-02  2.9065558020698001e-01 -1.4244693487219373e-02 2.4185051214986191e-02  1.2336327390188660e-01 -1.9401176552838117e-01 -7.9540876095436655e-02  4.0347929091536339e-01 -2.2471211048646300e-01 2.0066906880898187e-02  3.3831156213771391e-01 5.6507424413443941e-01 5.4070574100855334e-02  1.6362813846523785e-01 1.4764049973864121e-01 1.2914634221429458e-01  -1.8703761323323767e-01 -1.5623336549157