<?xml version="1.0"?>
<VTKFile type="UnstructuredGrid"  version="0.1"  >
<UnstructuredGrid>
<Piece  NumberOfPoints="8385" NumberOfCells="35823">
<Points>
<DataArray  type="Float64"  NumberOfComponents="3"  format="ascii">0 0 -4000  0 250000 -4000  250000 0 0  250000 250000 0  130000 0 -60000  130000 250000 -60000  250000 0 -60000  250000 250000 -60000  72147.7 166878.6 0  86225.3 177671.7 0  72082.2 161278 0  80407.60000000001 166683.7 0  66765.10000000001 151053.8 0  70533.5 147695.4 0  88829.10000000001 164696.8 0  62768.1 132621.8 0  114956.1 180662.6 0  63924.4 130258.4 0  156213.5 216508.7 0  94617.8 155302.3 0  144307.5 195630.5 0  87231.39999999999 141931.8 0  68256.5 121278.3 0  69835.5 115711.4 0  95984.2 132464.1 0  116918.1 151520.9 0  96139.8 122416.1 0  78677.39999999999 102260.8 0  93451.5 115391.6 0  111847.4 131476.2 0  107207 116320.3 0  142564.4 147908.4 0  121370.1 121838.1 0  82154.39999999999 83011.2 0  84152.3 84289.39999999999 0  99259 96094.39999999999 0  106151.5 94923 0  159682.5 139591.9 0  136050.5 110604.8 0  111591.5 84279.10000000001 0  126001.6 88238.2 0  105758.7 68122.8 0  151826.4 109709.5 0  197157.2 140577 0  129859.4 33265.4 0  140000 0 0  136000 250000 0  4857.142857142332 250000 -3857.142857142872  9714.285714284615 250000 -3714.285714285747  14571.42857143168 250000 -3571.42857142848  19428.57142857481 250000 -3428.571428571329  24285.71428571539 250000 -3285.714285714253  29142.85714285597 250000 -3142.857142857177  33999.99999999657 250000 -3000.000000000101  38857.14285713715 250000 -2857.142857143025  43714.28571427773 250000 -2714.285714285949  48571.42857141832 250000 -2571.428571428873  53428.57142855891 250000 -2428.571428571797  58285.71428569948 250000 -2285.714285714721  63142.85714284007 250000 -2142.857142857645  67999.99999998066 250000 -2000.000000000569  72857.14285712125 250000 -1857.142857143493  77714.28571426184 250000 -1714.285714286416  82571.42857140242 250000 -1571.428571429341  87428.571428543 250000 -1428.571428572265  92285.71428568359 250000 -1285.714285715189  97142.85714282417 250000 -1142.857142858113  101999.9999999648 250000 -1000.000000001036  106857.1428571053 250000 -857.1428571439606  111714.2857142459 250000 -714.2857142868847  116571.4285713865 250000 -571.4285714298085  121428.5714285271 250000 -428.5714285727327  126285.7142856677 250000 -285.7142857156564  131142.8571428107 250000 -142.8571428585083  250000 240000.0000000016 0  250000 230000.0000000032 0  250000 220000.0000000048 0  250000 210000.0000000064 0  250000 200000.0000000079 0  250000 190000.0000000095 0  250000 180000.0000000111 0  250000 170000.0000000127 0  250000 160000.0000000143 0  250000 150000.0000000159 0  250000 140000.0000000175 0  250000 130000.0000000191 0  250000 119999.9999999916 0  250000 109999.9999999825 0  250000 99999.99999998408 0  250000 89999.99999998568 0  250000 79999.99999998725 0  250000 69999.99999998885 0  250000 59999.99999999045 0  250000 49999.99999999205 0  250000 39999.99999999366 0  250000 29999.99999999526 0  250000 19999.9999999968 0  250000 9999.999999998399 0  135172.4137931034 0 -137.9310344827583  130344.8275862069 0 -275.8620689655166  125517.2413793104 0 -413.7931034482749  120689.6551724138 0 -551.7241379310333  115862.0689655173 0 -689.6551724137912  111034.4827586208 0 -827.5862068965494  106206.8965517242 0 -965.5172413793075  101379.3103448277 0 -1103.448275862066  96551.72413793117 0 -1241.379310344824  91724.13793103464 0 -1379.310344827582  86896.5517241381 0 -1517.24137931034  82068.96551724157 0 -1655.172413793098  77241.37931034504 0 -1793.103448275856  72413.79310344851 0 -1931.034482758614  67586.20689655196 0 -2068.965517241373  62758.62068965542 0 -2206.896551724131  57931.03448275886 0 -2344.827586206889  53103.44827586231 0 -2482.758620689649  48275.86206896573 0 -2620.689655172408  43448.27586206916 0 -2758.620689655167  38620.68965517257 0 -2896.551724137927  33793.103448276 0 -3034.482758620686  28965.51724137944 0 -3172.413793103445  24137.93103448287 0 -3310.344827586204  19310.34482758629 0 -3448.275862068963  14482.7586206897 0 -3586.206896551723  9655.172413793145 0 -3724.137931034482  4827.586206896551 0 -3862.068965517241  0 4999.999999999225 -4000  0 9999.999999998096 -4000  0 14999.99999999756 -4000  0 19999.99999999726 -4000  0 24999.99999999649 -4000  0 29999.99999999545 -4000  0 34999.99999999351 -4000  0 39999.99999999275 -4000  0 44999.99999999197 -4000  0 49999.9999999912 -4000  0 54999.99999999042 -4000  0 59999.99999998965 -4000  0 64999.99999998888 -4000  0 69999.99999998808 -4000  0 74999.99999998731 -4000  0 79999.99999998655 -4000  0 84999.99999998577 -4000  0 89999.99999998501 -4000  0 94999.99999998423 -4000  0 99999.99999998347 -4000  0 104999.9999999827 -4000  0 109999.9999999819 -4000  0 114999.9999999811 -4000  0 119999.9999999804 -4000  0 124999.9999999824 -4000  0 130000.0000000079 -4000  0 135000.0000000178 -4000  0 140000.000000017 -4000  0 145000.0000000163 -4000  0 150000.0000000155 -4000  0 155000.0000000147 -4000  0 160000.000000014 -4000  0 165000.0000000132 -4000  0 170000.0000000124 -4000  0 175000.0000000116 -4000  0 180000.0000000109 -4000  0 185000.0000000101 -4000  0 190000.0000000093 -4000  0 195000.0000000085 -4000  0 200000.0000000078 -4000  0 205000.000000007 -4000  0 210000.0000000062 -4000  0 215000.0000000054 -4000  0 220000.0000000047 -4000  0 225000.0000000039 -4000  0 230000.0000000031 -4000  0 235000.0000000024 -4000  0 240000.0000000016 -4000  0 245000.0000000008 -4000  138499.992698711 4754.026372277331 0  137093.2670052012 9536.639699345635 0  135699.8836753657 14323.17697982435 0  134242.0997113028 19090.39455387465 0  132631.3534429766 23807.82160930602 0  130751.3712685147 28423.75111080412 0  128562.4170940472 32902.44582968431 0  126285.2564027428 37336.77035579942 0  123661.3951409534 41572.18842203188 0  120466.1639654971 45392.17900234455 0  116742.7600150611 48701.57094013265 0  112599.2779558244 51459.89351581372 0  108052.7620132346 53498.30186482816 0  103362.6013075687 55186.61489180412 0  98626.9445524631 56744.1075396087 0  93895.10465571457 58313.07723732995 0  89213.61083253716 60025.29196098565 0  84659.98679375931 62049.90630856762 0  80423.72342827682 64664.16689082998 0  77079.46520597988 68320.91799726382 0  75401.03926413733 72984.18687963787 0  75132.31546441223 77953.39118957664 0  75517.79269400188 82922.72841733029 0  75994.12798690467 87884.97931497527 0  76141.03644053877 92865.72190814259 0  75577.6917399208 97812.27627089612 0  74056.71099135675 102551.9930892217 0  71898.80264107142 107043.8044784894 0  69421.09707510214 111369.0872951042 0  66791.23439747586 115604.1050970619 0  64120.91357323291 119813.8417572768 0  61505.46198361652 124057.7414488965 0  59050.55973913459 128395.9995763311 0  56903.24970482702 132893.1998504455 0  55303.81367464051 137609.8368688517 0  54543.69409163466 142530.9149478115 0  54488.96440186739 147512.6695308264 0  54974.77359561732 152472.3067464133 0  55867.62888085351 157375.8602543657 0  57059.2217642535 162216.0105874235 0  58457.1304431001 167000.9860755429 0  59967.68958253603 171751.8163324134 0  61481.85702780542 176501.4740946017 0  63249.74457712872 181161.0445509208 0  65477.30866714627 185617.8308927955 0  68245.7959420751 189759.2433519008 0  71520.4315061924 193514.3385976385 0  75350.61144867241 196685.7937683813 0  79773.17101542671 198974.8606729538 0  84378.90699153654 200882.4207250944 0  88911.60265377768 202954.8336515224 0  93435.45084417483 205047.09581866 0  98032.2666486997 206976.2210864664 0  102616.0836544937 208935.8107130805 0  107113.0495121478 211085.573258506 0  111372.3937621359 213667.5068784722 0  114843.2448044628 217203.7046179156 0  116698.1230832934 221806.0799432901 0  117775.060870244 226673.1998860401 0  119571.7838315423 231305.7208116875 0  122475.2761019627 235353.0279900247 0  125742.3595464658 239117.4724032586 0  129161.5121633181 242745.2442007751 0  132614.792595325 246340.7012191151 0  250000 250000 -8921.902778285936  250000 250000 -19170.47581238532  250000 250000 -30942.99472097832  250000 250000 -44466.06850109496  250000 230769.2307692338 -60000  250000 211538.4615384677 -60000  250000 192307.6923077015 -60000  250000 173076.9230769353 -60000  250000 153846.1538461692 -60000  250000 134615.384615403 -60000  250000 115384.615384597 -60000  250000 96153.84615383085 -60000  250000 76923.07692306468 -60000  250000 57692.30769229849 -60000  250000 38461.53846153233 -60000  250000 19230.76923076616 -60000  250000 0 -44466.06850109696  250000 0 -30942.99472111472  250000 0 -19170.47581244904  250000 0 -8921.90277830635  232227.1661023966 0 -60000  216296.9260375522 0 -60000  202018.2515568125 0 -60000  189219.9167941597 0 -60000  177748.4479527209 0 -60000  167466.2824799582 0 -60000  158250.1197834204 0 -60000  149989.4414908582 0 -60000  142585.1882295191 0 -60000  135948.5681760333 0 -60000  232227.1661023966 250000 -60000  216296.9260375522 250000 -60000  202018.2515568125 250000 -60000  189219.9167941597 250000 -60000  177748.4479527209 250000 -60000  167466.2824799582 250000 -60000  158250.1197834204 250000 -60000  149989.4414908582 250000 -60000  142585.1882295191 250000 -60000  135948.5681760333 250000 -60000  130000 244047.61904762 -60000  130000 238095.23809524 -60000  130000 232142.85714286 -60000  130000 226190.47619048 -60000  130000 220238.0952381 -60000  130000 214285.7142857199 -60000  130000 208333.3333333399 -60000  130000 202380.9523809599 -60000  130000 196428.5714285799 -60000  130000 190476.1904761999 -60000  130000 184523.8095238199 -60000  130000 178571.4285714399 -60000  130000 172619.0476190599 -60000  130000 166666.6666666799 -60000  130000 160714.2857142999 -60000  130000 154761.9047619199 -60000  130000 148809.5238095399 -60000  130000 142857.1428571599 -60000  130000 136904.7619047798 -60000  130000 130952.3809523998 -60000  130000 125000.0000000169 -60000  130000 119047.6190476054 -60000  130000 113095.2380
[...]
<PointData  Vectors="sample_prior"> 
<DataArray  type="Float64"  Name="sample_prior"  NumberOfComponents="3" format="ascii">-6.8915954415805112e-03 3.7049026255084909e-03 8.9405169637037478e-03  9.1225304945936198e-03 8.2396078999823572e-03 -1.5677408584090505e-02  -3.7898841520169536e-03 -4.0006141163372033e-03 7.0610410894203762e-04  -4.9288496146146586e-03 -3.5717580937995497e-03 1.4122121058744133e-03  1.5863475612242519e-03 -1.7200446390355137e-03 -7.1038003636824437e-05  2.8734998503615367e-04 -7.1974213580443215e-04 -1.4128793844164797e-03  1.2029719924217792e-03 -4.8400552317999302e-03 1.2333192089010693e-03  -4.6112798679339307e-03 -5.5003812463962805e-03 2.3700777233213172e-04  2.5807137068014664e-03 1.7206148555282386e-03 2.3513556105281695e-03  1.5724266898943019e-03 1.6689653606354533e-03 2.5606428227428258e-03  2.4576045477141032e-03 1.6209493745400355e-03 2.9932446787547342e-03  2.3549469971256886e-03 1.4193289991425442e-03 2.7079282886010550e-03  1.4594460535060419e-03 -1.8553392452141945e-04 3.6469464427396256e-03  1.4834780708618072e-03 -5.6154579170414429e-04 3.4592657267513718e-03  1.9366409933812207e-03 1.4068545045154645e-03 2.3455288006788083e-03  -3.8791887533888705e-04 -1.8200129384279137e-03 4.4062662117557187e-03  -1.6363790839136088e-03 1.6747008290518112e-03 -1.6638498215195148e-04  -2.6358768916587446e-04 -1.8646091773241811e-03 4.1943119309578508e-03  -3.5022862612243499e-04 1.7800397337700514e-03 1.7371485520402048e-03  8.8417195954875914e-04 1.4600200020926067e-03 1.8051039803726569e-03  -9.1628364552718406e-04 1.4247862313542634e-03 1.1681371862662798e-04  -2.5548297405318139e-05 5.0324040129569672e-04 3.0515407875784609e-03  2.7577517737612077e-05 -2.6837866367432723e-03 3.0760416897817056e-03  -1.2791693967982019e-03 -2.8766037458858034e-03 3.0261640211408820e-03  -7.3596524613030168e-04 -3.8259783144614851e-04 2.3530487803019766e-03  -6.4903581574955792e-04 6.3173463754187683e-04 5.3979797986855994e-04  -1.3060961221342997e-03 -9.3378976965098972e-04 2.1318390638889397e-03  -1.5715881253521931e-03 -2.0507082122062682e-03 2.7671296872647036e-03  -1.6096148345274748e-03 -1.2991035051026997e-03 2.9103108861878125e-03  6.8337740671888507e-05 -1.6190718575624275e-03 1.4540496599843953e-03  -8.7851545134130760e-04 -1.0865875995779877e-03 1.4296410624549062e-03  -5.1076483944032392e-04 -2.1160110791055927e-04 3.4547981383297501e-04  -5.7891068824852479e-05 -2.3913301785641519e-03 2.2613537179929844e-04  -7.1093798448998088e-04 -1.4840309941538525e-03 1.6045292219773770e-03  -6.7034437869079120e-04 -1.8828042455059021e-03 1.9472862848081774e-03  -1.4796523250487025e-03 -2.2969476654886205e-03 1.5833801490576277e-03  -6.8040682317382190e-04 -2.0053767518781588e-03 1.4501060306597194e-03  -7.7184237658484047e-04 -1.5682011700630626e-04 1.2361974591160799e-03  -4.0643908269640515e-04 -1.8759304130414377e-03 9.0772248131408117e-04  -3.8652714172862320e-04 -2.0597514734959363e-03 1.3018790120418609e-03  -6.1019850049459461e-04 -2.3151480931349155e-03 6.6991044101852044e-04  8.6242406838091189e-05 -7.5205902848474214e-04 6.9564978955254011e-04  7.1412114007794703e-04 4.0371820003451219e-04 1.6357126936100113e-03  -8.3297586414512049e-04 4.2859712370678489e-05 2.0440884879298314e-03  -7.4057508439200493e-04 -1.5747799114443567e-03 2.6126389992939042e-04  1.0127312922326890e-03 -1.6810660658322844e-03 9.0453245300745890e-04  -4.4644918499706473e-04 1.7627768970431806e-03 1.8186083085201062e-03  9.1601129690689429e-03 8.7853697758591559e-03 -1.3994696926995273e-02  8.5453879858657274e-03 9.8163224619531326e-03 -1.1817804850594625e-02  8.5737680493176496e-03 8.2701223217995536e-03 -1.1242133747341027e-02  7.8843453457176881e-03 7.2616023030852468e-03 -1.0397081764400537e-02  6.0216727812898371e-03 6.8280659637129405e-03 -7.6047961908949028e-03  4.7101330361606899e-03 7.1529505680163171e-03 -5.9518289012796778e-03  3.9639701145389762e-03 7.7144238970173317e-03 -5.6623463587748375e-03  4.0247899776623937e-03 7.6322066215014153e-03 -4.6186506275180325e-03  4.0245189440563283e-03 5.8808789108581398e-03 -3.8359022515291863e-03  3.5585662494244173e-03 5.4228914199226080e-03 -3.6071698131800688e-03  3.8596579419412050e-03 4.6921290487728275e-03 -4.1396485628192410e-03  3.2304004466099630e-03 3.9877464099564962e-03 -4.0105867237605185e-03  3.8252153517545663e-03 4.4809415532869315e-03 -3.7806656166904759e-03  3.3276291598854551e-03 4.2028920398772393e-03 -3.7675570989119970e-03  3.6422828398306548e-03 4.2434539835234644e-03 -3.1588730950793354e-03  2.9975481482930684e-03 3.8772660228331549e-03 -2.2869758666449339e-03  2.0785221377743000e-03 3.3413536493032358e-03 -1.5536882189706659e-03  1.0779447289076985e-03 3.2214304307147802e-03 -1.0230898979730603e-03  9.8772465206014497e-04 3.5187780810994771e-03 -1.1772604249263902e-03  3.3105430691092794e-04 3.1603292243075091e-03 -9.9211310508486483e-04  -3.3339004816346901e-04 2.1514798842768574e-03 -4.5590933394431903e-04  -1.5939717408094435e-03 2.0909626843912277e-03 -7.8949798968639177e-04  -2.1345037710253016e-03 2.3353558219782761e-03 -8.8880320106132066e-04  -1.8689646380847076e-03 2.0138599416695884e-03 4.2309075242674135e-04  -2.4271240117188174e-03 1.8350199894492320e-03 1.9263694509368380e-03  -1.9593107299742366e-03 1.6920059439999560e-03 1.6706501370814051e-03  -1.0593286257829227e-03 1.5660959163314883e-03 1.7722416006768079e-03  -4.8441748048160599e-03 -3.8173630720551720e-03 1.9388954137369400e-03  -3.6064391733148719e-03 -2.3346277790981178e-03 1.9483863564416224e-03  -2.1683805414596780e-03 -2.0972565986565402e-03 1.4333499579200493e-03  -5.8226040750660010e-04 -1.3500376583792542e-03 1.6220274183651492e-03  -1.3887103551989293e-04 -6.1724936578012055e-04 7.3541837306626229e-04  5.3239736687061667e-04 -4.4594514091469183e-05 -1.0675955553755554e-03  3.8467953556561201e-04 1.0833828883992478e-03 -1.1982377148615662e-04  -1.1347333255231290e-03 4.1241355093772381e-04 -4.5261489526241157e-05  -1.0473365617332941e-04 1.1657198781654164e-03 -1.0394295254152084e-03  -1.0942511732825535e-03 1.8080955731875382e-03 -4.7302085379187389e-04  -3.4409128760429561e-04 2.0327419554593061e-03 -3.8330768655145652e-04  7.1172743519700820e-04 1.8514613594173930e-03 7.7787768093625777e-05  5.4913635523996395e-04 1.2297943543671957e-03 1.5063605145811494e-03  -4.5899161852009903e-04 -4.8025176502044267e-04 2.7828682241359797e-03  -3.8080777086856504e-04 -1.5852454041324216e-03 2.1315403299907764e-03  -1.3004339957147749e-03 -1.0970874919199131e-03 1.7894191113457432e-03  3.7585402075764225e-04 -9.2213192475101694e-04 1.6990309335072967e-03  1.7287345134648167e-03 -2.1085357255343851e-03 2.3182803612905060e-03  6.4138586834821870e-04 -3.6151969260525977e-03 2.8664515554164458e-03  2.0131381044311112e-05 -4.3254544539566547e-03 3.9854368541991482e-03  -1.2599999643269305e-03 -3.6240724505346229e-03 2.6885913698415200e-03  -1.5798798983134318e-03 -4.1779262476556280e-03 2.2755144368812588e-03  -1.1063258332709726e-03 -4.1429901359497376e-03 2.4825137085394840e-03  -2.2080805501353039e-03 -4.3399719820212089e-03 2.0378846072166182e-04  3.3970866178252725e-04 -1.4969093805307719e-03 1.7675096625927294e-03  1.8975946039124356e-04 -9.6251267742953012e-04 2.2141726020702321e-03  3.2491172804479030e-04 8.1792139364838821e-05 1.0948595806542700e-03  -8.2629709498759844e-04 7.4768258607584091e-04 1.0491789100026219e-03  -7.6708289301707618e-04 7.1216432427447895e-04 1.9032294747882261e-03  -1.0750080188954450e-03 -4.8477236087512157e-04 5.5673718142523277e-04  -3.7494998846040811e-04 1.4002381875735512e-04 -1.2871998629133911e-04  -9.1619349570052754e-04 5.0074634701373106e-04 5.4678121352631120e-04  -1.4136809642341639e-03 4.0600273671226946e-04 1.0320150801887236e-03  -1.2566636743146275e-03 2.7251058283980805e-04 1.1481553814768882e-03  -6.9673656642141129e-04 1.2260703642158545e-04 5.1897295501450479e-04  -1.4160481003755890e-03 -1.9793221145495297e-04 -3.3524957344066630e-05  -1.1279520262920996e-03 -3.2879284660435813e-04 -3.6641892680684831e-04  -9.0856845175726268e-04 -4.2085202776918299e-04 7.7359413744905526e-05  -1.1480509967544158e-03 -1.3586259205731540e-03 -1.1703315990589376e-03  -1.5901230787670078e-03 -1.2441202095426771e-03 -1.5620597581643744e-03  -1.8288097706426316e-03 -1.8101593840584061e-04 -1.4317594447177107e-03  -3.0068068537828290e-03 1.5699334145781088e-04 -5.1137729222922913e-04  -3.6529856964982082e-03 -4.2576498846496122e-04 5.0953286170847773e-04  -4.7956452915015359e-03 -1.0533797920927773e-03 5.9497922132029806e-04  -6.1179557575003858e-03 -1.8782407049010132e-03 1.1207293886019150e-03  -7.1559838392635895e-03 -1.0652586922465688e-03 2.2103588819050528e-03  -7.6462167032613935e-03 3.8171890436848924e-04 3.5093976656520700e-03  -7.9772823506789256e-03 2.9675061192769932e-03 4.3035156040070214e-03  -7.2320844349551255e-03 2.8637084597696481e-03 4.6475079011082110e-03  -5.8377498307145897e-03 2.9455737498887105e-03 5.5452220458338478e-03  -6.0426033084433678e-03 4.3079363915914728e-03 6.8565520316110950e-03  -6.1672246583979635e-03 4.5758012876151314e-03 8.6650574849084904e-03  -5.8237735152785750e-03 3.5559464765694089e-03 8.5487070945378819e-03  -4.1491794373963191e-03 3.6028604159824219e-03 8.2208127358363841e-03  -3.6108193801650183e-03 3.0872438908367389e-03 7.7667075095959725e-03  -3.6516081980945236e-03 3.6146567636804764e-03 7.0446971830434935e-03  -3.8375165392839175e-03 3.6168713629274370e-03 6.0925811472297723e-03  -3.3883161675224639e-03 4.1981350419706999e-03 7.1794588589469818e-03  -3.5758527271035900e-03 4.1740047871157973e-03 6.5394988068077685e-03  -3.8054359178831703e-03 4.4579646812232462e-03 6.6140698938263864e-03  -3.2855384670144672e-03 3.8763664560034342e-03 8.6385213877851787e-03  -2.6653989355320149e-03 4.1998272038061895e-03 8.6284090301230135e-03  -3.1651758025702937e-03 4.9294257312939953e-03 6.7962195818482736e-03  -2.8437618806431905e-03 5.3972386008528141e-03 5.2340599109757351e-03  -1.3015470342145152e-03 6.6010293715922678e-03 3.4927718190403225e-03  -8.1536420314168247e-04 8.6632568094082568e-03 2.0289304809594983e-03  -7.5779715276042068e-04 9.1399664562770710e-03 1.1753053849937580e-03  -6.0019713273534747e-04 9.2895741925379093e-03 1.1879855960110236e-03  -1.6166890762846717e-03 8.2104871147410802e-03 2.3006408061737450e-03  -2.9275915234503293e-03 6.3484161300729680e-03 2.3902036461054452e-03  -3.1079877489444659e-03 5.8801047160907324e-03 1.6977285711942158e-03  -3.8671198456532085e-03 5.2531681153793423e-03 6.5013789228892413e-04  -4.3693613497602680e-03 5.1895703177978628e-03 -9.8425831124529612e-05  -5.2167498349389666e-03 4.5903735852260369e-03 -4.0214541665299359e-04  -5.1298589177785911e-03 3.6425851321139260e-03 -6.7189475822920612e-05  -5.5690090900869533e-03 4.0733311223917368e-03 6.9792016513080691e-04  -5.7949222475400051e-03 4.2099585829968146e-03 1.7498695221205983e-03  -4.7863029099017747e-03 4.2133581559386435e-03 2.4779789640972730e-03  -2.2325727657764890e-03 3.5997446787978432e-03 2.5521363066114905e-03  -3.2416311329060870e-04 3.7987438628613404e-03 5.1875433924709778e-03  2.6926306163332801e-03 9.5497555600083375e-04 7.7788496040901356e-03  4.0804761234971062e-03 5.1619647506458057e-04 9.1598494644035567e-03  5.9542821320116004e-03 7.1540564165967332e-04 9.8172770032552391e-03  6.7376329420316839e-03 1.4340349680102967e-03 1.0329264024583723e-02  6.8429702218827573e-03 2.4607396191699688e-03 1.0251094711029633e-02  6.6173782747857447e-03 3.6050459093257981e-03 9.2016572880731454e-03  8.0003555487126593e-03 5.4107381461807767e-03 7.4152315838096625e-03  8.0860545401504631e-03 4.7745615816748455e-03 4.9462386106234766e-03  8.4789925728358684e-03 3.5136001439121821e-03 3.6148061092309480e-03  9.4054732033144219e-03 2.1759002896969914e-03 2.9079926398015762e-03  1.0773095315005005e-02 7.4507458726757688e-04 2.8051156028365541e-03  9.5964289318941198e-03 -3.5801432037180399e-04 1.1546680778560161e-03  8.2604517000851863e-03 1.8974411698491784e-04 -7.7638000695572041e-04  6.4267683958196776e-03 2.3672583635410615e-03 -2.7383861635792237e-03  4.8452430081397831e-03 3.3268660140449639e-03 -5.0032392406590383e-03  3.3319375660309540e-03 4.8349307744635093e-03 -6.8684680107151206e-03  4.4882157124459489e-03 5.2868587663577674e-03 -8.2435312683394584e-03  4.6072552177735390e-03 5.7775910324701103e-03 -9.5078137837676414e-03  6.7891950735094898e-03 6.5570071568109723e-03 -1.1503881560629941e-02  8.5964534571934103e-03 7.6966855816339060e-03 -1.2998457509205551e-02  8.7654765636539685e-03 8.6712267344466326e-03 -1.4521801608646901e-02  3.2039826247038923e-04 -1.5803405953881289e-03 8.8631893486927594e-04  2.2008116140307660e-04 -1.5297013865127147e-03 1.2001666276337489e-03  -8.0879580405621320e-05 -1.7277191274864437e-03 1.2108382660460217e-03  1.0166253258538088e-04 -1.7267385974540990e-03 1.5877386929639018e-03  -6.4236830669493556e-06 -1.6943577539266540e-03 8.6497602093127239e-04  -5.8096584631560377e-04 -1.4479933216670856e-03 3.7502839197719849e-04  -7.3894933297598319e-04 -1.3245331706184902e-03 2.2435696792371974e-04  -9.7156651980308620e-04 -1.7530524617846558e-03 4.9990403720749708e-04  -9.6177556826663980e-04 -1.9929604799608712e-03 3.5892680272743229e-04  -8.1650368974648345e-04 -1.4270130413343116e-03 6.1437716061727430e-04  -2.3284728019810189e-04 -8.3975650078572028e-04 6.0729985846691621e-04  5.9591907188887114e-04 -6.5513831439609834e-04 2.2952622128538953e-04  8.9294923100104520e-04 -9.7289546485244223e-04 3.6504769025908488e-04  8.1405916009549492e-04 -4.8844257762175073e-04 2.0809900370607438e-04  4.3480773867953502e-04 -3.7715695807418722e-04 -7.6176713339875366e-05  4.7868658557142824e-04 -8.0640276423252655e-04 2.7154275623791999e-04  2.8814824931716674e-04 -6.2988357289004782e-04 4.7515937411269260e-04  6.9491341951062114e-05 -7.3032367013086305e-05 4.2368220248191875e-04  -6.8552138541871357e-04 -6.8650453356534739e-04 5.7816294611429738e-05  -1.6952433928373370e-03 -1.1967807278001957e-03 2.7435941535090255e-04  -2.1950266180450991e-03 -1.5307459301910533e-03 3.1020385401318054e-04  -1.6721251499119381e-03 -1.2114693719721130e-03 7.2626358044374352e-04  -7.8075042019949584e-04 -1.3631589400790851e-03 1.2789568531297070e-03  -6.2255714727425836e-04 -1.4254196439372378e-03 1.7935207116597583e-03  -8.0605554481880191e-04 -1.0761805754658568e-03 1.7932312106084512e-03  -1.3404108704179083e-03 -1.2397598366632936e-03 2.1874577467112235e-03  -1.4730928653906663e-03 -1.5517089686298421e-03 2.4022182624309318e-03  -1.5874446939603511e-03 -2.2417497128439596e-03 2.8739987035717816e-03  -1.3130906010175533e-03 -2.3716772687472402e-03 2.9739386558931742e-03  -6.4465199108498447e-04 -2.9175237332601015e-03 2.6585001204357146e-03  1.2866895770792530e-04 -2.9017163706731163e-03 3.3152080199410740e-03  1.2085808335428266e-04 -2.4334594817382259e-03 4.1125915543074841e-03  -1.9895036383125008e-04 -1.9725923559270266e-03 4.7226440774040595e-03  -3.3691640973923666e-04 -1.4963563735576350e-03 4.8329539223905304e-03  -2.4233612508084033e-04 -1.7442119138163983e-03 4.8729753345888990e-03  -1.0785174327039492e-04 -1.7698162788681504e-03 5.3013668213509777e-03  2.7250707766874748e-04 -7.6468712805176191e-04 5.3420675871419521e-03  8.3391891490798879e-04 1.3183448530447190e-04 4.6095515877822282e-03  1.5146955769511149e-03 1.3146862782889089e-03 3.8613912080397452e-03  1.6569058980736744e-03 2.1645442654044380e-03 3.8121387435385966e-03  1.9489846103104838e-03 2.8393861239764638e-03 3.4483320311212238e-03  1.8058100920338585e-03 2.9479673375169177e-03 3.1202368319824428e-03  1.9999668851304235e-03 3.3931345821894715e-03 2.5447183910834300e-03  2.3603561859635242e-03 2.8906389092766128e-03 2.3502244416769161e-03  2.0437940765186632e-03 2.7112526513640642e-03 1.4178680022551835e-03  1.6082631201333772e-03 3.2803275326110568e-03 1.7401102702830564e-03  8.9299400482184392e-04 2.7593357680746615e-03 1.2042983894927735e-03  -6.5092821203291613e-05 2.4784998662568955e-03 7.2393590593316885e-04  -3.9858046166804640e-04 2.5462909385011159e-03 4.7756508152443553e-04  -1.7985502821099854e-04 1.9055168748528637e-03 1.0999649380434235e-03  1.5258614195176533e-04 2.0028423202706597e-03 9.6699310658757967e-04  3.6745220809514343e-04 1.8504028590531042e-03 5.4492848408900984e-04  3.2783753585262799e-04 2.0333748790473966e-03 3.0944230279191876e-04  1.5942710682666746e-04 2.5791525494521278e-03 1.6128791683189581e-04  2.7988527300619264e-04 2.5231816266658830e-03 6.5996065426762395e-06  7.2897837059750638e-04 1.9105336516011479e-03 -1.3510969025102396e-04  2.8823269619091598e-04 1.7379171344341577e-03 -1.3388604195450416e-04  3.0702833443122446e-04 1.4952599420358708e-03 -1.6515210089691469e-04  -6.7310812017234121e-04 2.3028746528214188e-03 -1.8533128442779005e-04  -5.2593735915104037e-04 2.4809298029509763e-03 5.8741118246018024e-04  -7.4003528310107643e-04 2.7995810486208042e-03 1.3550601343847565e-03  -7.5571610119045209e-04 2.5130363041579035e-03 2.3498466632938622e-03  -7.3547204944525446e-04 1.8148186681404444e-03 2.6189213570568478e-03  -5.5932417912110904e-04 1.5394347199372703e-03 2.1606800328687189e-03  -4.9100640185420139e-03 -2.3145738568483756e-03 1.7891403855865996e-03  -3.7068218513917474e-03 -2.9541796270456206e-03 2.1884876546657992e-03  -3.5793170886054696e-03 -4.2910417165793824e-03 1.8692637958612813e-03  -3.0416313806886208e-03 -6.0605748904180830e-03 1.2675533162560980e-04  -5.1796177731146358e-03 -4.7306171931039958e-03 4.7355295197747116e-04  -4.9597947853831101e-03 -3.1471707184209021e-03 1.1214984642793555e-03  -2.7867036029514177e-03 -1.8442317300167719e-03 3.5502126158647304e-04  4.9106619843218113e-04 1.2020083912439759e-03 -5.8455802674061005e-04  8.9593966270523412e-04 1.6174930505080316e-03 3.8946175866235512e-04  -1.3711154780326779e-04 1.2345348914045433e-03 4.1779497793583304e-04  -1.8960679868984608e-05 5.5823780105883857e-04 7.9303712985210489e-04  -1.1249963323092423e-03 7.5564801225746147e-05 1.2515790227800388e-03  1.8687454315588408e-04 -1.2451603693055698e-03 1.7449016440017184e-03  9.8515186427927020e-04 -2.9369331884391068e-03 1.2287837777588094e-03  2.5049997363039528e-04 -4.1950752904427475e-03 1.0376554410086770e-03  6.9436571194456172e-05 -4.2509438722661075e-03 1.9853738462262739e-03  6.7372551713451828e-04 -5.0656956400715204e-03 2.1271364297206323e-03  -4.7339301164513333e-04 -4.7225747931397451e-03 1.1668945857635936e-03  -7.3657663490741220e-04 -4.6005776811401458e-03 9.2921762098786441e-04  -2.4189606201838712e-03 -4.4874824148451523e-03 4.8188702577911763e-04  1.9961485741840082e-03 -4.2419950987212015e-03 2.4003459008222106e-03  -5.5582188712331433e-04 -4.1259428665497431e-03 2.3540471849017126e-03  -9.3382154099455584e-04 -3.6892490787363949e-03 2.2022231755279261e-03  4.1577163574686813e-04 -3.7825701200897076e-03 2.7965870189383137e-03  -5.2076160042433022e-05 -2.9436782469941481e-03 3.3997667628263297e-03  2.4396714237647885e-05 -1.2267683500684840e-03 3.6850182875129943e-03  4.6924521097291207e-04 -2.2832309078486420e-03 2.1504890914891476e-03  1.2800125946450355e-03 -3.2186518472630599e-03 2.2942473622006442e-03  8.7851543998587224e-04 -2.7717065806321908e-03 1.3108960365410855e-03  3.5187169437269928e-04 -2.1583413196887562e-03 1.4856971748047228e-03  -4.5011375774582831e-03 -4.4045945792279603e-03 1.4864364298874298e-04  -3.0965274076755886e-03 -3.9100250734974487e-03 4.0157114208640821e-04  -4.7347062715532096e-03 -2.2549363837756262e-03 -5.2169172740935228e-04  -2.3734285265320293e-03 -1.6124347309821143e-03 -5.4013703620885546e-04  -1.3191884604507862e-03 -1.2094905051180974e-03 1.0804109525939087e-03  -1.0908894956588170e-03 -1.0732074070932205e-03 2.8608222536664039e-04  7.5594718039076036e-04 1.0748422526546437e-04 -7.7559750340707660e-04  6.8184716196840404e-04 -5.2183901804190674e-05 -9.5090900758610232e-04  1.3245405853272529e-03 -4.3147107722515200e-04 -1.0677752698527729e-03  1.5496605992918761e-03 -4.1441950539247035e-04 -1.9656900227