<?xml version="1.0"?>
<VTKFile type="UnstructuredGrid"  version="0.1"  >
<UnstructuredGrid>
<Piece  NumberOfPoints="3594" NumberOfCells="14547">
<Points>
<DataArray  type="Float64"  NumberOfComponents="3"  format="ascii">0 0 -4000  0 250000 -4000  250000 0 0  250000 250000 0  135000 0 -60000  135000 250000 -60000  250000 0 -60000  250000 250000 -60000  65308.5 173604.8 0  78441.2 185529.2 0  65707.89999999999 168017.6 0  73555.60000000001 174095.8 0  61257.8 157386.9 0  65291.6 154352.5 0  82112.3 172814.3 0  58804.1 138685.6 0  106822.8 190893.8 0  60152.4 136426.2 0  144960.9 230041.9 0  88660.10000000001 163931.9 0  134829.2 208246.3 0  82409 149993.8 0  65214.4 127836 0  67249.7 122418.9 0  91916.7 141284.3 0  125498.1 99698.5 0  111195.9 162013.4 0  92905.39999999999 131283.2 0  77176.5 109747.4 0  90809.3 124059.5 0  107806.1 141615.9 0  104439.5 126126.3 0  137051.8 160541 0  118095 132800.4 0  82238.39999999999 90851.5 0  84123.2 92291 0  98197.5 105309.4 0  105163 104713.8 0  154799.8 153672.9 0  133655.9 122823.1 0  111467 94557.3 0  106995.1 77971.8 0  149450.7 123239.8 0  192061 157764 0  133903.2 45232 0  140000 0 0  136000 250000 0  9714.285714284615 250000 -3714.285714285747  19428.57142857481 250000 -3428.571428571329  29142.85714285597 250000 -3142.857142857177  38857.14285713715 250000 -2857.142857143025  48571.42857141832 250000 -2571.428571428873  58285.71428569948 250000 -2285.714285714721  67999.99999998066 250000 -2000.000000000569  77714.28571426184 250000 -1714.285714286416  87428.571428543 250000 -1428.571428572265  97142.85714282417 250000 -1142.857142858113  106857.1428571053 250000 -857.1428571439606  116571.4285713865 250000 -571.4285714298085  126285.7142856677 250000 -285.7142857156564  250000 240000.0000000016 0  250000 230000.0000000032 0  250000 220000.0000000048 0  250000 210000.0000000064 0  250000 200000.0000000079 0  250000 190000.0000000095 0  250000 180000.0000000111 0  250000 170000.0000000127 0  250000 160000.0000000143 0  250000 150000.0000000159 0  250000 140000.0000000175 0  250000 130000.0000000191 0  250000 119999.9999999916 0  250000 109999.9999999825 0  250000 99999.99999998408 0  250000 89999.99999998568 0  250000 79999.99999998725 0  250000 69999.99999998885 0  250000 59999.99999999045 0  250000 49999.99999999205 0  250000 39999.99999999366 0  250000 29999.99999999526 0  250000 19999.9999999968 0  250000 9999.999999998399 0  130000 0 -285.714285714285  120000 0 -571.4285714285701  110000.0000000001 0 -857.1428571428546  100000.0000000001 0 -1142.857142857139  90000.00000000017 0 -1428.571428571424  80000.0000000002 0 -1714.285714285709  70000.00000000025 0 -1999.999999999993  60000.00000000026 0 -2285.714285714278  50000.00000000023 0 -2571.428571428565  40000.00000000019 0 -2857.142857142852  30000.00000000015 0 -3142.857142857139  20000.00000000009 0 -3428.571428571426  10000.00000000004 0 -3714.285714285713  0 9999.999999998096 -4000  0 19999.99999999726 -4000  0 29999.99999999545 -4000  0 39999.99999999275 -4000  0 49999.9999999912 -4000  0 59999.99999998965 -4000  0 69999.99999998808 -4000  0 79999.99999998655 -4000  0 89999.99999998501 -4000  0 99999.99999998347 -4000  0 109999.9999999819 -4000  0 119999.9999999804 -4000  0 130000.0000000079 -4000  0 140000.000000017 -4000  0 150000.0000000155 -4000  0 160000.000000014 -4000  0 170000.0000000124 -4000  0 180000.0000000109 -4000  0 190000.0000000093 -4000  0 200000.0000000078 -4000  0 210000.0000000062 -4000  0 220000.0000000047 -4000  0 230000.0000000031 -4000  0 240000.0000000016 -4000  134615.5786831678 8376.221222376078 0  129135.8381374389 16690.61556165003 0  123693.3119097638 25029.34528065769 0  118458.7304757098 33499.41630675747 0  114183.5561631282 42453.40693221996 0  117152.9012549134 51656.5775220433 0  109640.5189223821 56772.26946740811 0  99783.22349336625 58163.79074226946 0  89906.64048415456 59427.041153887 0  80231.83368741472 61714.93090982783 0  73457.07599492084 68333.04562829909 0  74666.1562536891 78126.62096439983 0  77477.57171300898 87678.05180735435 0  78461.83411646895 97534.63399308435 0  75049.04009726809 106816.2708870931 0  69538.50964765088 115103.6313494232 0  63598.75337311435 123095.8011052612 0  58118.08704720287 131402.6075281692 0  54672.56885839759 140685.5429709587 0  54507.01644649181 150612.6283068675 0  56360.01451579022 160386.8607035369 0  59277.85033353963 169905.2699317088 0  62638.60576621335 179274.2426304358 0  68212.99295126265 187459.3754999009 0  75814.40529046141 193858.3467082375 0  84761.00503602097 198204.6515231062 0  94061.92665129391 201734.182040823 0  103676.4565927747 204325.1412130333 0  112974.540309108 207830.3235759034 0  118972.4630267572 215380.3369922852 0  120264.8170507578 225241.997356352 0  123444.1757132735 234565.2722630062 0  129527.245366261 242435.1534677757 0  250000 250000 -9999.999999997535  250000 250000 -19999.99999997662  250000 250000 -29999.9999999377  250000 250000 -39999.99999995799  250000 250000 -49999.999999979  250000 240000.0000000016 -60000  250000 230000.0000000032 -60000  250000 220000.0000000048 -60000  250000 210000.0000000064 -60000  250000 200000.0000000079 -60000  250000 190000.0000000095 -60000  250000 180000.0000000111 -60000  250000 170000.0000000127 -60000  250000 160000.0000000143 -60000  250000 150000.0000000159 -60000  250000 140000.0000000175 -60000  250000 130000.0000000191 -60000  250000 119999.9999999916 -60000  250000 109999.9999999825 -60000  250000 99999.99999998408 -60000  250000 89999.99999998568 -60000  250000 79999.99999998725 -60000  250000 69999.99999998885 -60000  250000 59999.99999999045 -60000  250000 49999.99999999205 -60000  250000 39999.99999999366 -60000  250000 29999.99999999526 -60000  250000 19999.9999999968 -60000  250000 9999.999999998399 -60000  250000 0 -49999.99999997466  250000 0 -39999.99999999574  250000 0 -30000.00000007532  250000 0 -20000.00000005069  250000 0 -10000.00000002534  240416.6666666667 0 -60000  230833.3333333333 0 -60000  221250 0 -60000  211666.6666666667 0 -60000  202083.3333333333 0 -60000  192500 0 -60000  182916.6666666667 0 -60000  173333.3333333333 0 -60000  163750 0 -60000  154166.6666666667 0 -60000  144583.3333333333 0 -60000  240416.6666666667 250000 -60000  230833.3333333333 250000 -60000  221250 250000 -60000  211666.6666666667 250000 -60000  202083.3333333333 250000 -60000  192500 250000 -60000  182916.6666666667 250000 -60000  173333.3333333333 250000 -60000  163750 250000 -60000  154166.6666666667 250000 -60000  144583.3333333333 250000 -60000  135000 240000.0000000016 -60000  135000 230000.0000000032 -60000  135000 220000.0000000048 -60000  135000 210000.0000000064 -60000  135000 200000.0000000079 -60000  135000 190000.0000000095 -60000  135000 180000.0000000111 -60000  135000 170000.0000000127 -60000  135000 160000.0000000143 -60000  135000 150000.0000000159 -60000  135000 140000.0000000175 -60000  135000 130000.0000000191 -60000  135000 119999.9999999916 -60000  135000 109999.9999999825 -60000  135000 99999.99999998408 -60000  135000 89999.99999998568 -60000  135000 79999.99999998725 -60000  135000 69999.99999998885 -60000  135000 59999.99999999045 -60000  135000 49999.99999999205 -60000  135000 39999.99999999366 -60000  135000 29999.99999999526 -60000  135000 19999.9999999968 -60000  135000 9999.999999998399 -60000  9760.266420117418 0 -5952.053284023483  19520.53309387125 0 -7904.10661877425  29307.1102415074 0 -9718.421407375839  39104.7333719938 0 -11473.30036109216  48875.83924532436 0 -13369.19882213981  58571.87012930932 0 -15613.67939664691  68124.11986543986 0 -18408.53002372226  77527.76485865096 0 -21667.33907869995  86719.09466349281 0 -25482.98540480309  95631.92793098884 0 -29908.59492259344  104180.5528547143 0 -35003.66989024555  112449.6580983703 0 -40542.62450796275  120509.52686276 0 -46382.42388125008  127994.6878848568 0 -52930.54997290741  9760.266420117418 250000 -5952.053284023483  19520.53309387125 249999.9999999999 -7904.10661877425  29307.1102415074 250000 -9718.421407375839  39104.7333719938 250000 -11473.30036109216  48875.83924532436 250000 -13369.19882213981  58571.87012930932 250000 -15613.67939664691  68124.11986543986 250000 -18408.53002372226  77527.76485865096 250000 -21667.33907869995  86719.09466349281 250000 -25482.98540480309  95631.92793098884 250000 -29908.59492259344  104180.5528547143 250000 -35003.66989024555  112449.6580983703 250000 -40542.62450796275  120509.52686276 250000 -46382.42388125008  127994.6878848568 250000 -52930.54997290741  145499.999999982 250000 0  154999.999999964 250000 0  164499.999999946 250000 0  173999.999999928 250000 0  183499.99999991 250000 0  192999.9999998977 250000 0  202500.00000009 250000 0  212000.000000072 250000 0  221500.000000054 250000 0  231000.000000036 250000 0  240500.000000018 250000 0  240000.0000001065 0 0  230000.0000002129 0 0  220000.0000003194 0 0  210000.0000004258 0 0  200000.0000005323 0 0  190000.0000006387 0 0  180000.0000006325 0 0  170000.0000004744 0 0  160000.0000003162 0 0  150000.0000001582 0 0  81541.63335874674 35498.13281562441 -1158.202651726381  46004.68664141578 194254.3443995834 -2060.726341037222  32687.99629987251 175105.6839569158 -2219.415882311186  36663.59507600099 63079.34846719183 -2167.093431592842  52002.09530018299 134928.3526843132 -266.7613614382204  59599.13772899003 109177.3480854863 -691.4602217251189  13806.90843888927 84795.87142461444 -3288.608480833754  42042.1003123136 65482.76889364541 -1784.344992951069  85917.78356508871 211210.3489857896 -1084.187284676976  26344.15959288631 140617.4121347481 -2112.437398247788  49350.86723141051 36336.78604214006 -2272.704599832591  21702.40331646254 119880.0690882354 -2466.437976166102  57313.56589490068 220733.4025395545 -2090.49117424689  28866.73893404105 218351.493928639 -3037.311471166797  64300.33793173476 48969.94193502321 -1793.328299662734  52482.25996720623 28090.02703717845 -2196.191483315934  63095.9704402233 54899.2587271606 -1627.600015239288
[...]
<PointData  Vectors="sample_post"> 
<DataArray  type="Float64"  Name="sample_post"  NumberOfComponents="3" format="ascii">6.8767898782407733e-01 -2.4376414690971391e+00 -3.2129846723656430e-01  -6.0732459581188325e-01 1.2986400755024172e-01 -3.6659611858197122e-01  3.5910286948415149e-01 -3.6943576855884158e-01 -5.3128751515909778e-01  -7.1571242205271046e-01 2.2491623808935901e-01 -7.0070894708965370e-01  1.5903250877831876e-01 -3.7266650966615460e-02 -2.8146589418057370e-02  2.8044966916899322e-01 -1.2351054840487223e-01 -1.8923136765907111e-01  2.8614534023371463e-01 -3.3602368317894801e-02 -3.8612352425593674e-02  3.1638928689818585e-01 -1.8654564822321554e-01 1.5434191777438402e-01  -1.0712309354868980e-01 1.3656448850871000e-01 1.1534964365278391e-01  6.9894818596999156e-02 -1.5520575483503402e-02 -2.5246856162248171e-01  -1.4661831992987995e-01 -2.1129779742031046e-02 -3.2310313112002477e-02  -2.1693740953273435e-01 1.8975781783434592e-01 -9.5409528017160058e-02  -1.7303663725197163e-02 -9.5347557460875969e-03 1.8654759481238570e-01  -8.4613768438890180e-02 -9.1225209592106504e-02 1.1955449553996501e-01  -8.5812574838480302e-02 -1.5869759735724503e-02 -1.7955954681210978e-01  -2.1404604918626537e-02 -1.7879364178710891e-01 -3.2765319686582633e-01  -1.4287805303485338e-01 1.8486229182810315e-01 -2.2044703192051984e-01  -1.7524317723608815e-01 -9.9607252979948255e-02 -2.7889012243675987e-01  -2.2195419533774605e-01 7.0438841742039210e-02 -2.9432969124680495e-02  -1.1714637343557768e-01 6.1156087553890862e-02 -2.7223508432961417e-02  -1.5481707475926004e-01 -9.8331005031852797e-02 -1.6817683285775012e-01  1.2843578801265068e-01 8.6413036835705614e-02 -1.0697695896478404e-02  -2.4483913815768771e-01 -3.0855089173243117e-02 6.6953404059180155e-02  -1.5343357270353927e-01 -7.4240534357491297e-02 -1.2068788194892772e-01  1.9282215786558141e-01 -2.1938449111428490e-01 6.4755647506965636e-02  -2.4665736183417906e-02 -1.5327379026314125e-01 -3.8989136092764369e-04  -1.2876324256149516e-01 -2.2089886889165863e-01 -1.2157698658993714e-01  -7.2500233781508300e-02 -1.2083965492460162e-01 -2.0429515277784641e-02  7.4172175755490316e-02 -3.3143901216740108e-02 -9.7389401279451657e-02  -5.1363106461145495e-02 -2.2949258239219031e-01 -1.6522212748080359e-01  -8.5696748601880160e-02 9.0715665543477875e-02 1.1592062941986329e-01  -2.0754901467932726e-01 1.6014323096821181e-01 -2.5151354682139055e-03  -1.4309440509315947e-02 8.3643446496370677e-02 7.6588011584932725e-02  -8.1304291211604651e-02 -1.2023671428592491e-03 2.8039599722457031e-01  1.1849082327583109e-01 -1.5313721295344579e-01 -1.2952275024296120e-01  1.8008756745300253e-01 -3.7341711536275679e-01 -1.3062831156395702e-01  1.4387713869036600e-01 1.7847071492770858e-01 1.3165689934954136e-01  -9.8661884618270246e-02 7.1693761918711491e-02 3.7818330594127053e-01  4.6071489018078997e-02 1.2682804472875123e-01 9.8244632231059593e-03  -9.3345165132230085e-03 -7.2406575773438661e-02 -1.0719321231717055e-01  -4.2934645025850968e-02 2.4510602394660155e-02 1.1838139081876893e-01  1.1746788001102007e-01 4.7367552894716357e-02 -9.9111090485178868e-02  -1.4553209110165144e-01 2.9657962453470452e-02 5.0035343291324377e-02  7.4797658838742190e-02 9.1705978076038266e-03 1.1783687846394940e-01  -7.0659222979998881e-02 5.1140553491247215e-03 4.7948600446972205e-03  3.7090385544365401e-01 1.3566408018215337e-01 -5.6024340883859512e-02  8.1994236101510118e-02 8.0815741910126641e-05 -1.3112855067740290e-02  8.6299718055470251e-02 -5.1069789868044368e-01 -3.1873531167318042e-01  2.7109449269266073e-01 1.9643118265733844e-01 2.2426899588219959e-01  9.1978574716362310e-02 3.5548672951547605e-01 -7.7146155955581761e-02  1.7802239575119100e-01 -2.9170007703344020e-02 1.9873564102087699e-01  3.3205501483133163e-03 6.9323884904741936e-02 2.2906655658798178e-01  1.3970369001208244e-01 3.2094954675011217e-01 1.3837426455612523e-01  -5.1251417080386819e-01 2.0091944129619063e-01 -7.9820224576422433e-02  -1.9678562105135933e-01 2.4351594137043353e-01 -1.1368472221146805e-01  2.7148086481964970e-02 -4.2126766870600629e-02 2.6703578739555534e-01  3.7246337753661046e-01 7.4491006859977990e-02 1.0428858365592281e-01  2.0762860246447548e-01 -1.2805342221776123e-01 1.7575660710148916e-01  1.7553411139505451e-01 -6.7448641049183550e-02 -8.1741605813907159e-02  6.6506232744871510e-02 1.4645395438277259e-01 2.0656962125085687e-01  2.1891529567791967e-01 2.4980443052308410e-01 -4.6366894109718332e-01  2.0215039614521282e-01 2.8711425664431252e-02 -1.2198189309546172e-01  3.3836665117860702e-02 -1.0847996969215463e-01 8.5459935573193743e-02  7.6755920450570794e-02 -2.7003831366408371e-01 -2.8534888783478546e-01  -3.8907003626884767e-01 -8.7795155471535991e-02 -1.4000968534659741e-01  -4.0981466654217746e-01 1.3081180309413634e-01 3.3282052559159692e-01  -1.2891963852813612e-01 1.1022240315943266e-01 1.1883187404872782e-01  1.3241155504379884e-02 6.0031138458330434e-02 3.3332761100356867e-01  2.5518173340761969e-02 -1.6186317468697189e-01 -2.4102346131947563e-01  2.0393633886452428e-01 2.3195511285281781e-01 -6.8101072739312388e-02  -2.0031364913601912e-01 1.2769835379512626e-01 -3.6165929215825632e-01  2.4047853961422443e-02 2.7016322622027517e-01 4.0782260812083172e-02  5.7179031159797951e-02 -2.9111495468240561e-01 1.9995990638558739e-01  -2.3207896143498510e-01 -3.2029732604146255e-01 -1.2106877052426919e-02  1.2343889351511697e-01 -1.4400788236603232e-01 8.9183376946493545e-02  1.1132500745861307e-01 1.0335701606094887e-01 -1.0175517199649113e-01  -5.6012771259112644e-02 3.0773242101415366e-01 -3.6213206304390379e-02  -1.5569941502298090e-01 6.1862131710283527e-02 -1.1709326412113727e-01  -3.1939648219742689e-01 2.6965290034773423e-02 -8.0509897477769821e-02  -2.2594416776562828e-01 4.3295674387879074e-03 -1.1429758094962003e-01  7.3040975664788330e-02 1.0706104304083336e-01 -7.9311486727111788e-02  3.1684918169646048e-01 2.6696760555342797e-01 4.4735420520711755e-01  -4.0124431425450952e-01 -1.2109835699243812e-01 1.7372216552827083e-01  6.3746138193963063e-03 -1.2055848712599644e-01 -2.2964465010321955e-01  -3.4651767754682788e-02 -3.8851643007044218e-01 8.4186818524890780e-02  -2.5206748284593972e-01 -2.1436721105453418e-01 1.5707601187533915e-01  -3.1672562396465304e-01 1.1028332986454392e-01 2.1102558116435174e-01  -2.2100589728760409e-01 8.8410569762178620e-02 3.4892606596717191e-01  -1.4312613363018575e-01 2.1765376512535592e-01 1.3162013863450067e-01  -2.1789749601578833e-02 -4.4819731498497974e-02 1.0662013024183498e-01  1.5551944421120456e-01 -2.6776332683088516e-01 2.5135277700092090e-01  3.0796121195718264e-02 1.9806365584553634e-01 -4.0319497148348538e-02  -8.7283316948200504e-02 3.1501204348556061e-01 2.1082731983693728e-01  -3.0661134922950989e-01 3.4756028175106271e-04 3.4272213893991987e-01  -1.8886282955355535e-01 -1.3320227626033049e-01 -2.2100905498362572e-01  -1.6549715401498907e-01 -3.0032129405456176e-01 -3.3189135805998293e-01  3.2155880145532023e-01 -1.1821654685427847e+00 -1.1144552437913870e-01  3.6451007252818340e-01 -6.7685838731309700e-01 -1.7467346786429538e-02  1.3931194041125350e-01 -5.4455570958736688e-01 -3.0841108693748603e-01  -7.5147445166617755e-01 1.0197438427101901e-01 5.8646112545484108e-01  9.9709278107291577e-02 -2.1056714329646081e-01 8.0081904394504999e-01  -3.5804406778623032e-01 -1.0957698257685726e+00 3.0736325304766243e-01  -2.1728272635307724e-01 -1.9799006169594641e-01 -4.6477837745486172e-01  -5.3535838349657261e-01 -6.5170824090555945e-01 9.7706908964405884e-02  -5.1687651153703928e-01 -9.8270292566348394e-01 1.8319553846526673e-01  -8.8653565952927713e-02 -2.7018335845861002e-01 7.4723936852344158e-02  -3.5963562179351821e-01 3.1228825338490679e-01 6.0041622451675256e-02  -5.9593898220472297e-01 -1.8997173454798147e-01 -3.2654527479441031e-01  -3.4429425460452823e-01 1.1356959998955629e+00 1.7992994895963590e-02  -1.2810748253383175e-01 7.6076491458796902e-01 5.0497137544489668e-01  -4.2726112292666202e-01 3.7034131794309068e-02 5.2280862483881030e-01  1.7622237264780838e-01 -1.2574632902156138e-01 -4.2324279424339535e-02  4.7047247190085584e-01 -3.3524494579465193e-02 -5.8297714422043090e-01  4.1777937307945096e-01 -6.7300044410601767e-01 -6.9447870549455271e-01  -4.1322067249136696e-01 -5.3644749214559984e-01 -6.8348756388484488e-01  -5.2695470217825691e-01 1.1898726332424341e-01 3.4540533633657144e-01  -6.9698757665737698e-01 -4.0442083210317320e-01 -1.3569028093450886e-01  2.0777859248658864e-02 -3.5925068356021744e-01 -1.8484172944520313e-01  -2.9093499636841325e-01 2.4122156723880836e-01 2.0797829141381982e-01  4.2553686703415294e-01 4.3290936894999293e-01 2.4642661890679016e-01  3.1980744420769552e-01 -4.7465001176816318e-01 3.9761306162363820e-02  3.0997545001784671e-02 -4.7102637823411897e-02 7.3804062796445510e-02  -5.1368552859579031e-02 -4.0532639087831309e-03 8.8318629563090750e-02  9.6641368978360023e-02 4.8725191811593398e-02 3.0059673946830508e-02  6.1116169830533681e-02 1.1246155321509303e-03 3.4111330381525562e-01  -8.5260722471828532e-02 -3.1526538540955995e-01 1.1535908635632852e-01  -4.9084742552243044e-02 5.8830724636763365e-02 3.0011414047249583e-02  -2.7742820757365255e-01 -1.2073749464194970e-01 -2.6136529662105129e-01  -1.0027314592565452e-01 1.2727412921666356e-01 -1.3036493333167373e-01  -3.0504020812516932e-02 -1.4068791938867034e-01 -5.9253977886352067e-02  -1.9538011093013613e-01 -2.3253020285295364e-01 -7.3587195459837287e-02  5.2707333138095190e-02 -1.4250640152920832e-01 7.7576468971835788e-02  8.2231257202178790e-02 -5.8567623850718953e-02 -1.4131672990523303e-01  1.7192556861386021e-01 3.1692687318989811e-02 -1.8899989304242928e-01  1.4777941835576763e-01 -2.2011236248735558e-01 -1.5558861217335077e-01  5.7433925015862773e-02 -1.8278850788186467e-02 8.0565298066118243e-02  3.8019324497773684e-02 9.9951528118193862e-03 -2.0197921757049278e-02  -2.0046400469281039e-01 -7.2968110206397041e-02 -6.7661390001738042e-02  -1.2701259726669845e-01 9.3764403951667366e-02 -2.0676767788322137e-01  -1.0366203262624780e-01 -1.2449281362994920e-01 -3.7815912945233460e-01  -1.7740295691855010e-01 1.2598401775426918e-01 -2.8177909774664622e-01  -8.5192042147360092e-02 -5.3568465204037123e-02 -4.8711586703011928e-02  -1.2124734492395473e-01 -1.6009508694875949e-01 5.6058140039570166e-02  1.4082394327497769e-01 -5.7601114618256767e-03 9.5142159428458078e-02  5.8709771561529503e-03 -3.5353426091768642e-02 -1.9564246855654674e-01  1.3266268022623581e-01 -1.4512740172278898e-01 -2.1559940709786890e-01  5.2388574939123370e-02 -1.4223921080408433e-01 -6.3005846169312471e-02  -1.6917293111481612e-02 1.5554953420824075e-01 -1.0266929454579812e-01  -2.4616893103364432e-02 1.0255348970812807e-01 -2.1187945988447257e-01  6.3780062531656995e-02 -1.9515637949562151e-01 -7.2918776088941775e-02  2.4492863669011468e-02 7.5981094067604695e-03 -1.7750352307779719e-02  5.6747268731014891e-02 -1.7542266130484918e-01 6.3791959215244234e-02  1.2776904515037604e-01 4.3331959230027396e-02 2.7395764571652607e-02  8.5869043695679131e-02 7.1740003675113406e-02 2.6939427997418425e-01  -1.6268440316708732e-01 -2.4214372909569526e-01 -8.6860029297776614e-02  -3.9721218118443299e-02 -2.1588266090513536e-03 1.3443348016832088e-01  1.0918672992783238e-01 7.6183269743081664e-02 2.1808255021786210e-01  -1.0257443386249844e-01 5.9404227699355627e-01 -1.6128885312417261e-02  4.3086150591427452e-01 1.5580644903287161e-01 1.6487580444659225e-01  -2.5657458154106097e-02 1.1407682109949085e-01 -1.1177990297335532e-02  1.9136978283543643e-01 -1.5948494271709704e-01 -4.8978747438198196e-02  2.7471419724062585e-01 7.0190143931033552e-02 -7.8867320273661154e-02  1.5657554809193239e-01 -1.2299097130817348e-01 -1.2284296164985517e-01  1.8292546778264146e-01 1.8956637999097498e-02 9.2127485890848751e-02  1.4462999900798201e-01 -8.1608315735632278e-02 3.9367516527743944e-02  -1.9925987491129776e-01 -6.1699749527212279e-02 3.2384491038810692e-01  -1.7713449557261816e-02 -3.3820880488708419e-02 1.7016355265363531e-01  -7.3527112302555403e-02 -1.4372857662313035e-01 -1.2701573538338992e-02  -8.3844281923877981e-02 6.9039347717385980e-03 -1.2674567669994145e-02  3.0839759484758283e-01 -8.2573321871476701e-02 7.8003074244261880e-02  -1.9625350894796845e-01 -2.0705197320923396e-01 6.1468670244177653e-02  -2.1694908627291851e-01 -5.6998968300675745e-01 8.2890018008812405e-02  -1.2152725000900295e-01 -2.5932720504000989e-01 -1.4822070009539043e-02  2.4083152083833587e-01 -1.9820121726375658e-01 -8.2120263317614614e-02  5.7407613940848934e-01 4.3543452807390748e-02 -2.7059956377385519e-01  3.8882371440642893e-01 -9.9359492374451408e-02 -1.9530299933573467e-01  -2.1139547785792533e-02 -2.0937255231153190e-01 -2.8809158373869420e-01  8.7108102484885735e-02 -2.8427846832463871e-01 -4.1184540087944047e-02  -4.8135184174915684e-02 -5.7083169657597035e-02 4.3301299311401968e-02  4.7016040076072727e-02 3.1048457929114870e-02 4.1572979848106628e-01  -6.8350578578542612e-02 -1.1812399258999642e-01 -1.3643000980175340e-01  2.3359288553934976e-01 4.6329397564060189e-02 3.2202437836714539e-03  -2.5930737023071959e-01 5.1365380959036899e-03 -1.5172746374785748e-01  3.9264185797687035e-01 -3.8442072390457160e-01 -1.4398221471315850e-01  -2.6641490052518912e-01 2.1370732875320833e-01 1.3336518266299638e-01  -2.3013575548133430e-01 -1.5873186763855346e-01 -1.1849514277653760e-01  6.5351947097091065e-02 -2.9280825991079740e-01 -2.0911665208076427e-01  2.1116656876075382e-01 -1.6148168597487186e-01 -2.3092885245048000e-01  2.9847282987845329e-02 -6.4332775592359129e-02 7.8991042401209174e-02  -1.4769719050146632e-01 6.8826459848070870e-02 2.7517718105632603e-02  8.2103903569942030e-02 -3.0158837191540261e-01 -3.7811803916505848e-01  -8.1080814344855007e-02 -7.2426473058240806e-02 -6.4419321778799110e-02  -1.2410313821266118e-01 -1.3566504179808006e-01 2.0578046185939342e-01  4.4100379800138606e-01 2.9442021096739318e-01 1.8468772363203523e-01  1.0109915794818444e-01 3.7164991681146820e-01 2.0079343705137279e-01  -5.4244338273011179e-02 -1.5231531850066668e-01 1.7104053613909365e-01  -5.0713956094987545e-01 1.0372144981891446e-01 3.6508571540973389e-01  -3.0744193310959400e-01 3.0651128279685136e-01 -4.7410246616716367e-03  -1.1850325075546544e-01 -3.9634677959848125e-02 -1.2554369579748981e-01  -1.2977472594285785e-01 -1.3660059040080760e-01 -2.2664924904408457e-02  6.5938750922757815e-03 -2.5090389246743594e-01 2.8531996792767056e-01  1.0555664007968470e-01 -6.0085920646002433e-02 -3.3947132084293380e-01  -2.0418496042857684e-01 4.1352204986151153e-01 -3.8118887416847380e-02  1.9623450269773954e-01 2.5877228787728840e-01 -1.3400105658436284e-01  3.9248698323498027e-01 -1.8429213770525110e-01 1.2772920998317733e-01  -6.3229984656007307e-02 3.8715406389102980e-02 -5.7783951592368654e-02  -1.9362656846967236e-01 -6.7860128768830560e-02 -8.8572237658114769e-02  -9.6710387234607106e-02 -6.0685947418782228e-02 -2.2928414300881980e-01  4.2447584112697639e-01 -6.2551665337198456e-02 7.4834465172257475e-02  3.1318833404698276e-01 -6.2086463732456014e-02 3.2847303690317758e-01  2.8146776206782048e-01 -1.3716933727352820e-01 2.2963418454802373e-01  2.0904351303143300e-02 3.6155957699608242e-02 -2.6126732673471775e-02  6.9761093499623394e-02 2.6299413550587825e-01 -1.3643970447202319e-01  4.1165056020282080e-02 1.9248041516106257e-01 -1.8466498817184471e-01  2.0540904147490974e-01 5.7053565147909061e-02 -2.0375677850833573e-01  -3.3999355597641188e-02 1.4828484068102238e-01 -1.3776041470634975e-01  -8.0558485636913493e-02 1.5988890319646773e-01 1.8285134997985372e-01  6.6869360120298579e-02 2.6531395987552508e-01 6.3476346598530478e-02  -1.3725686780612781e-01 2.2675486951934701e-01 2.5117668977997426e-01  -3.4397397361998916e-01 -1.1269798583532549e-01 1.0942527937450289e-01  -4.6098645109881520e-01 7.4462460453545001e-02 -2.6313030835709461e-02  -8.7798982899149156e-02 -1.0874673397072743e-01 -3.8773252369976162e-02  -2.2936458406306519e-03 -2.6371389984232557e-01 -1.3025098357825454e-01  -4.1570004328377097e-02 -1.4329798619826126e-01 -1.5962419197283767e-01  -1.5934740243925424e-01 3.0864046705286391e-02 2.7663917508487379e-01  -9.4378569839084311e-02 -1.1464268137326805e-01 -3.6974078593176307e-02  8.8381251612395153e-03 9.8429028923315912e-02 -9.2576871167465158e-02  1.0294850855917466e-01 1.1698332276823134e-01 4.9638980797904783e-02  -8.2778454632951040e-02 -4.9658373250918077e-02 -1.1329810748006403e-01  -3.7103297219194802e-02 -8.8966100394502368e-02 -5.2812800572486739e-02  -2.3019381339458417e-01 -1.5470310740777429e-01 2.4069997618776612e-01  -1.2107657960506652e-03 9.3445077484736086e-02 2.8818099030439349e-02  -3.6017834168260002e-02 1.4472376422922645e-01 -1.0597237912559096e-01  2.1230847637121927e-01 1.2934885767396062e-01 -8.2319959965534192e-02  3.4512090422993452e-01 -1.2180867695684114e+00 -1.7917981616474152e-01  -1.7877697653747002e-01 -3.8290876102560290e-01 -2.3063093162246964e-01  4.6435543792455965e-02 -4.7772944581420840e-01 -3.1715653442192981e-01  1.0954462347906516e-02 2.3147023905696691e-03 1.3255792715993869e-01  -9.2898553939726028e-02 2.5019734930178078e-01 6.3365837645935702e-02  7.5485554339105310e-02 3.9122945195162706e-01 8.5110625735057330e-02  -2.2786064201707651e-01 2.9690022914690328e-01 4.9219526398525210e-01  -1.8896956305193793e-01 -6.3050965117225077e-02 1.5371888518249878e-03  -1.7487936582824523e-01 -2.3578049397953921e-01 -7.7441617131332560e-02  5.5826162565965190e-02 -1.7537150557407569e-01 1.3482473826117852e-01  -7.3884154726062287e-02 4.3308856479915378e-02 -5.5535229998936307e-02  7.1122073486408505e-02 5.7001720886823620e-02 1.8080594077443657e-01  -7.7024287374300365e-02 -3.3170309598056219e-01 -1.2068990965891198e-01  -8.9808253143147318e-02 3.4151827471485025e-01 -2.0631229380234720e-01  7.0052258939551165e-02 -4.9065918553071353e-01 -3.4899852749313248e-01  8.8249826907626144e-02 9.1661105407942842e-03 2.9603899379535958e-01  -1.8559536767194768e-01 3.9028246768356978e-01 1.2686194788850175e-01  1.1486241997362609e-01 2.3588416959601066e-01 1.2935101289114936e-01  2.3695062757011248e-01 8.8486349342651302e-02 1.4218490172844228e-01  4.5244436419245043e-01 4.3249358682612654e-01 1.9805265446291404e-01  -5.2245545643403307e-02 3.8088739564617591e-01 1.3031449409090190e-01  -1.9821975529426467e-01 4.0824481186851191e-01 -2.0818003965189208e-01  -6.8684829091785688e-03 -4.1578413157429334e-01 -1.6187758174088501e-01  -6.5386129517123623e-02 -1.8932561540051010e-01 1.6539103784435349e-01  -7.7079808649210504e-02 7.6058857306327823e-03 3.2256602271005635e-01  -2.9533051361062340e-01 -1.3559074296088466e-01 -8.3541293612235303e-03  -2.7031894312554988e-01 -1.9870775120112416e-01 5.2457330497125344e-02  4.5121880838514650e-02 -3.7239796666992975e-01 1.9154085334171211e-01  -1.6984514904083292e-01 -4.7890282114659899e-02 3.6533229513500720e-01  -8.7539752508796198e-02 8.8676556161009196e-02 2.2750352035976462e-01  -1.1912202479421440e-01 -5.9840925323915335e-03 2.3374512004537070e-03  2.6744060562047529e-03 9.1568032558097145e-02 2.6663490149191206e-02  3.0081511771008169e-02 -2.4683571593041601e-01 -6.4393796146015841e-02  2.5601585708949565e-01 8.1939996593047501e-02 -4.0392342584930083e-03  2.8145024345982655e-01 -2.1815495494136788e-02 1.4432331491401756e-01  1.0544069110188983e-01 -2.1166960852028110e-02 -6.2529497333620537e-02  1.1155985330854085e-01 -1.3937171450641891e-01 -6.8255184752685577e-02  1.7793527348736946e-01 -8.4995239803815750e-02 -1.0473504194303790e-02  -1.0578510877026434e-01 2.8000285221164894e-01 3.6806313686794365e-02  3.1755327226331420e-01 -1.5503440713719815e-01 -1.3636455072693282e-01  -2.9635775480625536e-02 -1.1929345202202986e-01 -1.3262137231569265e-01  3.6785589196319723e-01 -3.2332323775792909e-01 1.7160625877010189e-02  3.1768124755101390e-01 -3.9859509800903592e-01 3.0776160328743585e-01  6.1520664703781751e-03 -4.877731411900189