<?xml version="1.0"?>
<VTKFile type="UnstructuredGrid"  version="0.1"  >
<UnstructuredGrid>
<Piece  NumberOfPoints="3594" NumberOfCells="14547">
<Points>
<DataArray  type="Float64"  NumberOfComponents="3"  format="ascii">0 0 -4000  0 250000 -4000  250000 0 0  250000 250000 0  135000 0 -60000  135000 250000 -60000  250000 0 -60000  250000 250000 -60000  65308.5 173604.8 0  78441.2 185529.2 0  65707.89999999999 168017.6 0  73555.60000000001 174095.8 0  61257.8 157386.9 0  65291.6 154352.5 0  82112.3 172814.3 0  58804.1 138685.6 0  106822.8 190893.8 0  60152.4 136426.2 0  144960.9 230041.9 0  88660.10000000001 163931.9 0  134829.2 208246.3 0  82409 149993.8 0  65214.4 127836 0  67249.7 122418.9 0  91916.7 141284.3 0  125498.1 99698.5 0  111195.9 162013.4 0  92905.39999999999 131283.2 0  77176.5 109747.4 0  90809.3 124059.5 0  107806.1 141615.9 0  104439.5 126126.3 0  137051.8 160541 0  118095 132800.4 0  82238.39999999999 90851.5 0  84123.2 92291 0  98197.5 105309.4 0  105163 104713.8 0  154799.8 153672.9 0  133655.9 122823.1 0  111467 94557.3 0  106995.1 77971.8 0  149450.7 123239.8 0  192061 157764 0  133903.2 45232 0  140000 0 0  136000 250000 0  9714.285714284615 250000 -3714.285714285747  19428.57142857481 250000 -3428.571428571329  29142.85714285597 250000 -3142.857142857177  38857.14285713715 250000 -2857.142857143025  48571.42857141832 250000 -2571.428571428873  58285.71428569948 250000 -2285.714285714721  67999.99999998066 250000 -2000.000000000569  77714.28571426184 250000 -1714.285714286416  87428.571428543 250000 -1428.571428572265  97142.85714282417 250000 -1142.857142858113  106857.1428571053 250000 -857.1428571439606  116571.4285713865 250000 -571.4285714298085  126285.7142856677 250000 -285.7142857156564  250000 240000.0000000016 0  250000 230000.0000000032 0  250000 220000.0000000048 0  250000 210000.0000000064 0  250000 200000.0000000079 0  250000 190000.0000000095 0  250000 180000.0000000111 0  250000 170000.0000000127 0  250000 160000.0000000143 0  250000 150000.0000000159 0  250000 140000.0000000175 0  250000 130000.0000000191 0  250000 119999.9999999916 0  250000 109999.9999999825 0  250000 99999.99999998408 0  250000 89999.99999998568 0  250000 79999.99999998725 0  250000 69999.99999998885 0  250000 59999.99999999045 0  250000 49999.99999999205 0  250000 39999.99999999366 0  250000 29999.99999999526 0  250000 19999.9999999968 0  250000 9999.999999998399 0  130000 0 -285.714285714285  120000 0 -571.4285714285701  110000.0000000001 0 -857.1428571428546  100000.0000000001 0 -1142.857142857139  90000.00000000017 0 -1428.571428571424  80000.0000000002 0 -1714.285714285709  70000.00000000025 0 -1999.999999999993  60000.00000000026 0 -2285.714285714278  50000.00000000023 0 -2571.428571428565  40000.00000000019 0 -2857.142857142852  30000.00000000015 0 -3142.857142857139  20000.00000000009 0 -3428.571428571426  10000.00000000004 0 -3714.285714285713  0 9999.999999998096 -4000  0 19999.99999999726 -4000  0 29999.99999999545 -4000  0 39999.99999999275 -4000  0 49999.9999999912 -4000  0 59999.99999998965 -4000  0 69999.99999998808 -4000  0 79999.99999998655 -4000  0 89999.99999998501 -4000  0 99999.99999998347 -4000  0 109999.9999999819 -4000  0 119999.9999999804 -4000  0 130000.0000000079 -4000  0 140000.000000017 -4000  0 150000.0000000155 -4000  0 160000.000000014 -4000  0 170000.0000000124 -4000  0 180000.0000000109 -4000  0 190000.0000000093 -4000  0 200000.0000000078 -4000  0 210000.0000000062 -4000  0 220000.0000000047 -4000  0 230000.0000000031 -4000  0 240000.0000000016 -4000  134615.5786831678 8376.221222376078 0  129135.8381374389 16690.61556165003 0  123693.3119097638 25029.34528065769 0  118458.7304757098 33499.41630675747 0  114183.5561631282 42453.40693221996 0  117152.9012549134 51656.5775220433 0  109640.5189223821 56772.26946740811 0  99783.22349336625 58163.79074226946 0  89906.64048415456 59427.041153887 0  80231.83368741472 61714.93090982783 0  73457.07599492084 68333.04562829909 0  74666.1562536891 78126.62096439983 0  77477.57171300898 87678.05180735435 0  78461.83411646895 97534.63399308435 0  75049.04009726809 106816.2708870931 0  69538.50964765088 115103.6313494232 0  63598.75337311435 123095.8011052612 0  58118.08704720287 131402.6075281692 0  54672.56885839759 140685.5429709587 0  54507.01644649181 150612.6283068675 0  56360.01451579022 160386.8607035369 0  59277.85033353963 169905.2699317088 0  62638.60576621335 179274.2426304358 0  68212.99295126265 187459.3754999009 0  75814.40529046141 193858.3467082375 0  84761.00503602097 198204.6515231062 0  94061.92665129391 201734.182040823 0  103676.4565927747 204325.1412130333 0  112974.540309108 207830.3235759034 0  118972.4630267572 215380.3369922852 0  120264.8170507578 225241.997356352 0  123444.1757132735 234565.2722630062 0  129527.245366261 242435.1534677757 0  250000 250000 -9999.999999997535  250000 250000 -19999.99999997662  250000 250000 -29999.9999999377  250000 250000 -39999.99999995799  250000 250000 -49999.999999979  250000 240000.0000000016 -60000  250000 230000.0000000032 -60000  250000 220000.0000000048 -60000  250000 210000.0000000064 -60000  250000 200000.0000000079 -60000  250000 190000.0000000095 -60000  250000 180000.0000000111 -60000  250000 170000.0000000127 -60000  250000 160000.0000000143 -60000  250000 150000.0000000159 -60000  250000 140000.0000000175 -60000  250000 130000.0000000191 -60000  250000 119999.9999999916 -60000  250000 109999.9999999825 -60000  250000 99999.99999998408 -60000  250000 89999.99999998568 -60000  250000 79999.99999998725 -60000  250000 69999.99999998885 -60000  250000 59999.99999999045 -60000  250000 49999.99999999205 -60000  250000 39999.99999999366 -60000  250000 29999.99999999526 -60000  250000 19999.9999999968 -60000  250000 9999.999999998399 -60000  250000 0 -49999.99999997466  250000 0 -39999.99999999574  250000 0 -30000.00000007532  250000 0 -20000.00000005069  250000 0 -10000.00000002534  240416.6666666667 0 -60000  230833.3333333333 0 -60000  221250 0 -60000  211666.6666666667 0 -60000  202083.3333333333 0 -60000  192500 0 -60000  182916.6666666667 0 -60000  173333.3333333333 0 -60000  163750 0 -60000  154166.6666666667 0 -60000  144583.3333333333 0 -60000  240416.6666666667 250000 -60000  230833.3333333333 250000 -60000  221250 250000 -60000  211666.6666666667 250000 -60000  202083.3333333333 250000 -60000  192500 250000 -60000  182916.6666666667 250000 -60000  173333.3333333333 250000 -60000  163750 250000 -60000  154166.6666666667 250000 -60000  144583.3333333333 250000 -60000  135000 240000.0000000016 -60000  135000 230000.0000000032 -60000  135000 220000.0000000048 -60000  135000 210000.0000000064 -60000  135000 200000.0000000079 -60000  135000 190000.0000000095 -60000  135000 180000.0000000111 -60000  135000 170000.0000000127 -60000  135000 160000.0000000143 -60000  135000 150000.0000000159 -60000  135000 140000.0000000175 -60000  135000 130000.0000000191 -60000  135000 119999.9999999916 -60000  135000 109999.9999999825 -60000  135000 99999.99999998408 -60000  135000 89999.99999998568 -60000  135000 79999.99999998725 -60000  135000 69999.99999998885 -60000  135000 59999.99999999045 -60000  135000 49999.99999999205 -60000  135000 39999.99999999366 -60000  135000 29999.99999999526 -60000  135000 19999.9999999968 -60000  135000 9999.999999998399 -60000  9760.266420117418 0 -5952.053284023483  19520.53309387125 0 -7904.10661877425  29307.1102415074 0 -9718.421407375839  39104.7333719938 0 -11473.30036109216  48875.83924532436 0 -13369.19882213981  58571.87012930932 0 -15613.67939664691  68124.11986543986 0 -18408.53002372226  77527.76485865096 0 -21667.33907869995  86719.09466349281 0 -25482.98540480309  95631.92793098884 0 -29908.59492259344  104180.5528547143 0 -35003.66989024555  112449.6580983703 0 -40542.62450796275  120509.52686276 0 -46382.42388125008  127994.6878848568 0 -52930.54997290741  9760.266420117418 250000 -5952.053284023483  19520.53309387125 249999.9999999999 -7904.10661877425  29307.1102415074 250000 -9718.421407375839  39104.7333719938 250000 -11473.30036109216  48875.83924532436 250000 -13369.19882213981  58571.87012930932 250000 -15613.67939664691  68124.11986543986 250000 -18408.53002372226  77527.76485865096 250000 -21667.33907869995  86719.09466349281 250000 -25482.98540480309  95631.92793098884 250000 -29908.59492259344  104180.5528547143 250000 -35003.66989024555  112449.6580983703 250000 -40542.62450796275  120509.52686276 250000 -46382.42388125008  127994.6878848568 250000 -52930.54997290741  145499.999999982 250000 0  154999.999999964 250000 0  164499.999999946 250000 0  173999.999999928 250000 0  183499.99999991 250000 0  192999.9999998977 250000 0  202500.00000009 250000 0  212000.000000072 250000 0  221500.000000054 250000 0  231000.000000036 250000 0  240500.000000018 250000 0  240000.0000001065 0 0  230000.0000002129 0 0  220000.0000003194 0 0  210000.0000004258 0 0  200000.0000005323 0 0  190000.0000006387 0 0  180000.0000006325 0 0  170000.0000004744 0 0  160000.0000003162 0 0  150000.0000001582 0 0  81541.63335874674 35498.13281562441 -1158.202651726381  46004.68664141578 194254.3443995834 -2060.726341037222  32687.99629987251 175105.6839569158 -2219.415882311186  36663.59507600099 63079.34846719183 -2167.093431592842  52002.09530018299 134928.3526843132 -266.7613614382204  59599.13772899003 109177.3480854863 -691.4602217251189  13806.90843888927 84795.87142461444 -3288.608480833754  42042.1003123136 65482.76889364541 -1784.344992951069  85917.78356508871 211210.3489857896 -1084.187284676976  26344.15959288631 140617.4121347481 -2112.437398247788  49350.86723141051 36336.78604214006 -2272.704599832591  21702.40331646254 119880.0690882354 -2466.437976166102  57313.56589490068 220733.4025395545 -2090.49117424689  28866.73893404105 218351.493928639 -3037.311471166797  64300.33793173476 48969.94193502321 -1793.328299662734  52482.25996720623 28090.02703717845 -2196.191483315934  63095.9704402233 54899.2587271606 -1627.600015239288
[...]
<PointData  Vectors="sample_post"> 
<DataArray  type="Float64"  Name="sample_post"  NumberOfComponents="3" format="ascii">-3.3707496527331793e-01 3.1143923584790001e-01 -5.3415009205432129e-01  2.6421581718423132e-01 -7.4195381962836038e-02 -1.2071903691692043e+00  -1.8952482219477363e-02 -4.5118771810771130e-01 -2.2281605411178831e-01  2.5922821608377566e-01 2.2897509017572004e-01 -1.1162547202289859e-01  1.7065058075085396e-01 -3.8546014897532294e-01 6.0784914995606032e-01  1.1580355868337724e-01 -4.0909734092173450e-01 3.2494319026124391e-01  -1.8758825113501348e-01 -3.5084766342935593e-02 9.1723439593774131e-02  3.4302434446087909e-01 -3.8827851881320241e-01 -3.9994552558580404e-01  -6.0994943989242649e-02 -1.1605227247729591e-01 9.5000660838176539e-03  1.5675463756846617e-02 -1.1428482495047587e-01 8.4154105586966871e-02  -6.5834898158619537e-02 1.9127566595335831e-02 9.4365305749742640e-02  -2.2529710568308187e-01 -1.7872754237854688e-01 1.5171506746151228e-01  -1.2694724724985768e-01 -5.3699769999352880e-02 2.3971948960755388e-01  4.8371387707258309e-02 -1.1666037054992096e-01 -4.3553957023734130e-02  7.5682735472222026e-02 -9.3905452481442553e-02 1.2986597327674286e-02  1.8169957185623156e-01 -1.9044140035612396e-02 3.0299203467076086e-01  -4.3618112681009645e-02 3.3521083234047289e-02 -1.3444841124291772e-02  3.0388034054627761e-01 -9.5665675791301072e-02 2.2573362424285157e-01  9.4325575179603993e-02 -1.6066188728485731e-01 -9.8243545551570818e-02  7.0179627912228162e-02 -1.0224335798702444e-01 -1.0836608781608314e-04  -9.7980611497368916e-04 -1.9263182581567556e-01 2.3939201892914466e-01  2.4098157493115255e-01 -3.7328486435432733e-02 -1.3755211539747425e-01  -2.8458383439918342e-02 1.5924400492745419e-02 -1.2961042420048841e-01  4.2278555026975723e-02 -2.1149519327106445e-01 -7.2735173646361506e-02  -4.6607789409310825e-02 1.8725362343074131e-01 9.4335137567209330e-04  2.1640535903993252e-01 8.0931892004185393e-02 -1.7754828168624497e-02  -1.6994076509259343e-01 2.2732629010544872e-01 5.0147055449252985e-02  -1.1061040724056692e-01 7.0036821383285208e-02 2.8852044677670590e-02  -4.0101811611406690e-01 2.3294746116928428e-01 1.7326599181588759e-01  4.9134695669838170e-02 1.6421179091136920e-01 -4.6391261062869713e-02  -6.1812006077759260e-02 -2.2793835220949196e-01 1.1644821932349458e-01  8.5081383849436393e-02 1.1996630268565403e-01 6.0425535712466089e-02  4.2212332403476827e-02 4.3360270598225431e-01 -3.3840210309707686e-02  -4.5694245011712847e-02 -1.1525666231086544e-01 -1.2863568449256604e-01  -3.3755491158639586e-02 7.8223105860218661e-02 -1.3163148597457497e-01  -5.9708660936932889e-02 7.0406531953760973e-03 -2.3535574892089814e-01  3.0287454280082177e-01 -7.6087049319105371e-02 -6.8253661363536236e-02  -1.5204447472671698e-01 1.1254390166329774e-01 -1.0398760568728986e-01  1.3049942842069553e-01 -1.4143548185519711e-01 2.7064693607027845e-01  -1.4623863791563799e-01 2.1139093238058121e-01 8.2493822922803647e-02  3.4702205930098318e-02 -5.2317228381439122e-03 2.7880209041623413e-02  3.3811301438270303e-01 -2.8838981924330379e-02 1.9063057881219361e-01  -4.7031029759482576e-02 3.0068506465308377e-02 -1.2631599062292576e-01  5.1427659471825454e-02 -6.1639901015668817e-02 8.3698112667099783e-02  -4.6499263136857906e-02 -1.8797390400634936e-01 1.0521176531133829e-01  1.4103461238273057e-01 1.7471672865318044e-02 1.4110972775895214e-01  3.1742694204690020e-01 -2.9938818266560258e-01 1.8143459572644924e-01  -4.8143161529676620e-01 -9.2695184482299714e-03 -5.4613869596818121e-01  -4.4813978072218003e-01 -7.8040140971465485e-02 -2.2760827395042915e-01  -2.2753235290671245e-01 -1.0164352930398846e-02 -1.9291401807557462e-01  -3.4890572236099988e-03 1.1901948089828628e-01 3.2986157205535283e-01  7.0646186892954890e-02 1.7233781701902548e-01 1.5008480539409343e-02  -7.7845852308327995e-02 -2.1960134486752020e-01 -2.6509914982963906e-01  1.9814170979197224e-01 -2.2089139567300436e-01 -8.3047285881316671e-02  -1.2759978993695581e-01 9.4777121737227004e-03 1.4473628198435740e-01  -7.5340038465642772e-02 -6.9398307558528244e-02 -5.4750366825899524e-02  -1.6381164395006667e-01 -2.9393345309707323e-03 -1.0568091492120513e-01  -1.2675575285128943e-01 -1.2564550010933287e-01 -3.2998593247883795e-01  -2.6074361123739848e-01 -8.0029327947320678e-02 6.6829695978125131e-02  -1.6290925515813154e-01 7.7021327276630164e-02 -2.2026837053616374e-01  -2.8065590399699469e-01 -1.7425180265705355e-03 -3.4042116555582945e-02  -6.0872198686178727e-02 6.8953577548048012e-02 2.9745410333357147e-01  -1.3120374557273279e-01 1.1014616402161551e-01 3.4408655146332172e-02  -4.3847795444948798e-03 -5.1616742849788566e-01 1.3576477354319116e-02  -1.1989697761022443e-01 -3.1419266265863605e-01 -8.0530637662991081e-02  -1.3464355020892058e-01 -9.3383198490635436e-02 7.1287528734524264e-02  -2.6515197350254016e-01 3.6165796795493893e-02 -3.4643389194041328e-02  -1.8403186696613025e-01 -3.4894920115646116e-01 1.1540433574581885e-01  4.0526499254398204e-03 -9.0159415411139726e-02 1.6853874130564478e-01  -1.7360309088386931e-02 -3.6520659565633551e-02 7.3596025557628716e-02  1.7255620569445865e-02 1.1157844757957969e-01 1.3497053921888019e-01  -3.7367355111967988e-02 2.1965699587674029e-01 1.5659722464607129e-01  -2.3977289087689072e-01 -2.6614937919471293e-01 6.0923365999296257e-02  1.6593352741487671e-01 -2.7217466899643766e-01 -8.0916348922975435e-03  3.0065928549669597e-02 -6.1665690620262191e-02 4.9220667965108648e-02  -2.0079293208239313e-01 -1.5583528626762788e-01 2.4867062783768640e-01  1.3563550953073916e-01 9.5608962762160674e-02 2.8569436537805382e-01  4.6554352811829125e-02 2.9935714048575118e-01 2.1789591256659666e-01  1.4079727955540672e-01 2.9298572533751605e-01 -1.0621982238191777e-01  -1.1430372144930293e-01 2.4100966703122420e-01 -9.7312096348168189e-02  -6.8958537221489369e-02 3.2870129992088049e-01 -2.4453666386528839e-02  -1.6705812295712306e-02 3.6972241943186873e-01 3.5568081647791100e-01  3.5181056597707416e-01 1.4420426973027661e-01 1.4968302007671996e-01  -2.1423674212212357e-01 -2.8362365384416705e-01 -2.2059785694121800e-01  -4.3036941640054688e-01 2.0244812503212084e-01 -3.8416681509983325e-01  -1.7719468361514379e-01 -2.5839351757114998e-01 1.3029274784116235e-01  3.3174852570003313e-02 -1.0848927560128622e-02 1.0708289101877771e-01  7.2050982996386070e-02 -2.3896166350341441e-01 -2.4287268496105532e-01  3.2462602470198848e-01 -9.4933899589282583e-02 -1.9877822791459488e-02  1.0094414071755330e-01 -2.0544973387204521e-01 -1.4233867635461739e-01  -3.4825274592262734e-01 4.3777090508403943e-01 -8.9414856419502795e-02  -2.0599675792133088e-01 1.3457244862201320e-01 2.3404972308355382e-01  -1.8283183810883560e-01 1.2662635612383780e-01 2.6091625601759777e-01  6.6067058516043581e-02 3.8321931860204522e-02 -1.1523259747348341e-01  -2.2077750795388004e-01 1.5061325034971113e-01 -4.8226890037314146e-01  -5.5020379805276402e-02 -2.8336192175158986e-01 -3.6818001381956084e-01  1.4587652569165271e-01 -1.4487975590053390e-01 -1.8591392560528708e-01  -2.4821654052641126e-01 3.6396698534812738e-01 4.0153139555880901e-01  -1.1106458699945347e+00 -7.0627464356437442e-01 5.6820853316965059e-01  -5.8223474293065436e-01 -6.4066795186754300e-01 4.9852393349744595e-01  5.7344002927631650e-02 -9.1168245961061134e-01 -4.0416236453790449e-01  -7.9937769460427510e-01 -5.3785315724008353e-01 -6.8894057930525776e-01  2.5289276835397889e-01 1.1163143960157593e-01 -6.2978246282283790e-01  2.9122463711050373e-01 -2.3801444717075571e-01 -2.8983234776967853e-01  6.5835248381062569e-02 -2.3334940577748395e-01 -9.5394412663673489e-02  -1.0495493282449966e+00 -1.1362401163903167e-01 1.3463211349237994e-01  -9.0369851230000131e-01 1.1428300847206442e-01 1.4071227672172026e-01  2.5262549885195013e-01 6.9317802401301726e-02 -5.4624761349135953e-01  -2.7323373659976669e-01 6.0541681316956930e-01 -7.7610756608926790e-01  -9.4944971477066198e-01 1.5407404777118661e-01 -9.5093238944874214e-01  -4.6304253550009794e-01 6.1803172566181042e-01 -3.3602262161183744e-01  -2.9880832061772544e-01 6.9981811885995993e-01 -2.8254362420066992e-01  -9.9884006214744275e-02 1.0041144789048417e+00 2.7179747163022877e-01  4.9115908836919145e-02 -3.9821455435768166e-01 1.2456058851184867e-01  -2.6911560970007842e-01 1.8933046275849463e-01 -4.2680011719007194e-01  -7.3340351183681540e-02 -2.3566485905001960e-02 -3.6138191883330589e-02  -5.4890206018208865e-01 -2.9134376932492190e-01 -3.7877767488459568e-01  2.1700355701353496e-01 -6.7605605582906125e-02 7.0270493758088257e-04  4.1187793114326653e-02 5.4888665780968238e-01 -9.0130473934133995e-02  1.1953613349862602e-01 2.9621431982660079e-01 -2.9439095913377889e-02  -4.6563408615392388e-01 8.2226917323181797e-02 -2.7254382279440675e-01  5.6776299467339419e-02 2.2313857563969386e-01 -3.1350780124347688e-03  1.6846701342652318e-02 2.7107067069190534e-02 2.2894344308752729e-02  -1.7264453293033358e-01 1.2823791178291072e-01 2.0728284932006295e-02  -1.0096389699531983e-02 1.3528612561648620e-01 5.3068119239464542e-02  -1.2682727827815979e-01 -4.4474548156954570e-02 3.4294727864474031e-02  1.3765999224919435e-02 7.6309598134193135e-02 8.7257691307626298e-02  1.7565771736493258e-01 -5.5100982531544211e-02 2.1511238628948098e-01  2.5637149486112448e-01 2.9839066003968916e-02 1.6529701394365833e-03  2.2648658103666802e-01 2.3403343590735667e-01 -7.7447824872179591e-02  3.0141259764549354e-02 1.0752276517270301e-01 1.7241432753937491e-01  -4.6002195001192216e-02 2.3593905663586873e-01 1.5108706857563056e-01  4.4198295620495535e-02 4.5690799691437314e-02 9.6988030720305485e-02  4.0576455264979445e-02 2.3167055878716782e-02 1.0722888442295592e-01  1.2260960592966398e-02 -9.1335197542188069e-03 -5.6785214488383716e-02  -3.5354227237336161e-01 1.6264813110194545e-01 1.6803396175644780e-01  1.2724771255866571e-01 -1.4414680800714438e-01 -2.6186170120063440e-01  1.0403290457670415e-02 -6.4087205537611172e-02 -1.8957197356550545e-02  1.9638637207065218e-01 -4.9500064096995054e-02 6.5064096339930558e-02  2.3321068629010155e-01 1.5159644803449068e-02 1.7334966441645705e-01  6.3354992713885805e-03 1.4349039944460332e-01 5.1439525503239131e-02  -2.0634487776443469e-01 -2.4254766973523581e-01 1.5649511318048007e-01  8.3394867276296528e-03 1.0911018802862409e-01 -2.0614964244335954e-02  1.2138694678091604e-01 -5.4725525464905007e-02 1.5972115263825123e-01  4.1422633288431113e-02 2.3051900806302063e-02 1.5558970537081807e-01  -2.6402435268749247e-01 4.4012652570636940e-02 2.8864090641026674e-01  3.6188895309912407e-02 -2.0096733661149180e-01 2.7081575631038435e-01  -1.3322683785438624e-01 -8.6888794444966291e-02 3.8083148345495629e-02  -5.4268822917713781e-02 -1.9315197841425318e-02 -3.7676824727307837e-02  -1.2152768231271333e-02 -7.7350527305936377e-03 -2.0920177441107569e-02  7.1084006384568160e-02 -1.3139769637525268e-02 9.8867437384635992e-03  -8.5699947335594384e-02 1.4650390815430517e-01 2.0063271208789246e-01  -9.7196725876655662e-02 1.2586878267351650e-01 -9.0221037711070887e-02  -1.4742997650626738e-01 -1.5119880522911933e-01 1.9468354040231275e-01  5.4519594099532971e-03 9.4176101211545835e-02 2.1244001017970984e-01  -1.5104319301929503e-01 4.7943034094719214e-02 2.2762801643930092e-02  -2.8279779082644996e-01 3.4613945243231463e-02 -3.5564159701355569e-01  -1.1813670089882299e-01 3.1675034983795031e-01 2.6042328897654999e-02  -5.6005187955212261e-02 -4.0895039270914929e-01 -1.4181515503582837e-01  2.4494910175463516e-01 -3.3707483470214283e-01 -1.4797335099848843e-01  9.6256999684846717e-02 -7.8088824210024860e-02 1.8232263998974915e-02  9.8183633993807140e-02 -2.8999302841711394e-01 -2.6333530833576613e-01  4.3944046200785271e-02 7.1182577667733087e-04 2.5846915298805084e-01  3.1623919173537574e-01 -3.7338808065378329e-02 1.1696049261982495e-02  2.1188301157515171e-02 -2.0694588848883022e-01 2.5311507506141134e-01  -4.1486579961863995e-01 -1.0958642851162956e-01 1.3526295754585213e-01  -1.1496866221168800e-01 -2.2392935281075846e-02 -7.0055437878268692e-02  1.1303273265636677e-02 -1.2023129162993203e-01 5.0193234927653207e-01  -7.3351829602141747e-03 -4.7176014342564826e-02 1.6902802252086480e-01  -8.5762780784904499e-02 -1.2260529153195600e-01 4.7994078525847056e-02  -3.8473707223746968e-02 -1.9798056130444962e-02 1.4783903518632960e-01  -2.3909255167767499e-01 -3.8724088040316224e-01 -7.6290257131727657e-02  -5.1538027444795707e-02 1.0706376722313951e-01 -2.0256194094805782e-01  1.2918419930088978e-01 1.1505035332018765e-01 -1.5017163162271327e-01  -2.6333589884302722e-01 2.0589879183367025e-02 -3.1993015875098152e-01  1.4482300866287602e-02 -2.9093114385302976e-01 9.2282117880632952e-02  -9.1428113231484795e-02 -1.7629302839981575e-01 -9.9318977298014241e-02  1.3730446122653092e-01 1.1422038810424028e-01 -1.0868384303291784e-01  3.9125714179332451e-02 3.4130346113529814e-01 -3.5051150947772841e-01  2.3521881380364462e-01 -3.6959713042388201e-03 -2.7962247384086131e-01  1.3409236878420727e-01 -2.7159171537397064e-01 1.9331903935475231e-01  -7.5677940282797452e-05 -4.9489712883381276e-02 2.9964781817017577e-01  -3.9259324071322835e-02 -8.1459007495985988e-02 -2.8649703762571999e-01  -2.3620644415341341e-01 -4.7813747174367049e-01 -1.2144111345114064e-01  -3.9230386648872612e-01 -2.3568550042003178e-01 -7.9499893329029930e-02  -3.5534367848256954e-01 -1.6079738448589229e-01 -1.5096158104683993e-01  2.3271343094634769e-01 -1.0594735543902525e-01 3.2980225933157331e-02  -5.0972774516515613e-02 -6.6507972265504339e-02 -8.8793502368044203e-02  -4.2928112991066197e-01 -3.8415981011510186e-01 -8.4583555650635092e-02  -3.4487689747421035e-01 -2.9208443588051081e-01 8.6430127545983018e-02  -2.2927028294409918e-01 -1.1217655819522031e-01 -1.0107287239962277e-01  -3.5366390943277565e-01 -2.4934341108025040e-01 -1.2772892095733709e-01  -3.7800292058695206e-01 -4.5288486074185241e-01 -1.0992483703899410e-01  1.8564996312453366e-01 6.4310883331304275e-02 -1.9711381655189436e-01  -9.4729626483218681e-03 1.5794459372288161e-01 -1.7287414009818980e-02  1.8434911719933855e-01 -1.5221716665945156e-01 2.9974808380149626e-02  2.9183641147379596e-01 -1.6987657390197022e-01 9.6989919946231615e-02  -1.7392229355207731e-01 2.6045840396277259e-01 -2.5123074929898248e-01  -1.2904896292285722e-01 -3.7090634071503426e-02 -3.0363488593122423e-01  -4.6459049339888148e-02 9.3736326220854538e-02 2.5519428220549439e-01  -2.0339666599933146e-01 3.4332973255792582e-01 1.3673306686497112e-02  7.1617386704925484e-02 2.9826267912736598e-01 4.1700129401890662e-02  3.8198098794065195e-02 -3.0873051883982588e-01 3.5090897554452068e-03  -1.9946283067323692e-01 -2.2405730265320720e-01 -8.5404704820909602e-02  -6.8757765365617136e-03 -1.3836981790429045e-01 3.8093350834400969e-01  2.0391348133965120e-02 2.0334888027203860e-01 -1.8021162446965505e-01  -5.8452452396606083e-02 8.0106552806204115e-02 -3.7577045644339074e-01  1.3844248372803425e-01 -1.0066966837046158e-01 -2.4509197179556355e-01  1.1111101670330112e-01 -2.1442756139321718e-02 -2.4104013224103374e-01  2.6704613862013110e-01 -2.7594698782720800e-01 3.1589562396340143e-01  1.2283467576125037e-01 1.1576258861668594e-01 1.5558936321831224e-01  9.8106292282767307e-02 7.6445359523694648e-02 -1.8237583311290766e-02  -1.0359998965360206e-01 1.2967899023185789e-01 3.1857358169421002e-01  -1.6832784997553710e-01 1.1919277355916984e-01 -1.6231392442852161e-01  5.8647009218167664e-02 1.5485070476536228e-01 -1.7911109752180181e-02  2.7248276095323276e-01 2.2219579855794990e-02 -3.3579083969652651e-01  4.1204633535927160e-01 -1.5260570034407803e-01 -6.1333115226045162e-02  3.4367844604426184e-01 -2.0476605700814271e-01 -6.3954153403380204e-02  1.2470749447882527e-01 1.0911991282759248e-01 -8.9808311331148097e-02  4.2191108012804818e-01 -9.5442782534321882e-02 2.0487266337149965e-02  8.4957563647931875e-02 -1.2923715820758910e-01 1.1504470697010233e-01  -1.9261625800689805e-01 -5.6204008052641093e-02 4.6363876854508032e-02  -1.3634983561997377e-01 -6.9496495848684531e-02 -4.2401644542838644e-02  -3.7982808292277970e-01 -2.5147652429921487e-02 -1.7120648370283245e-01  -3.5971269866266725e-01 1.1704436627377439e-01 -4.0257685918494580e-02  6.1184510097116514e-02 -5.0457631865979409e-02 1.6496033770332078e-01  -9.8945004334012751e-02 -8.5094701111651891e-02 -2.7849924894975564e-01  -2.1911638298122937e-01 -6.1993180082457675e-03 -1.2790002817133236e-01  1.9067574437747059e-01 -6.2692572665835652e-02 -2.2239477063235824e-01  1.2407678716157651e-01 -3.2517002235284320e-01 -1.0226078623361953e-01  -1.4734679423722030e-01 -3.8080147957850607e-01 -2.5621817513941125e-01  -7.4248516105450024e-02 -1.3911575875000243e-01 -2.3446949902953651e-01  -2.1222210087955515e-01 -2.5719725210625231e-02 -1.0550691909591156e-01  -1.8464596474263295e-01 2.3795949903897873e-02 2.0198855534753913e-02  1.2304096879802535e-01 -1.8301908922095420e-01 -1.3662855890083886e-01  -5.5056198911143814e-02 -6.2109509222893364e-02 -2.1893525040681594e-01  1.1235438487628524e-03 2.6632699040862361e-02 -1.8549625603250880e-01  3.5433965478966854e-03 -1.6625263617966715e-03 -9.2480690029307838e-02  -1.8552052095883489e-01 1.8458768974777440e-01 2.1480257444504014e-01  -2.1609929775746303e-01 9.1002110109182729e-02 1.2985210616888385e-01  -3.0032151492136285e-03 1.2589493721762812e-01 -3.3354437222844097e-01  -3.6839291334502887e-02 5.0778453937221461e-02 -5.3916951796741990e-02  -3.2300046975699534e-02 2.8254513614013610e-01 -4.2923201525387041e-02  4.8703608806737081e-01 -8.3238010414509345e-02 -8.4171925313112031e-02  4.1183165637176511e-01 -1.5095341959685016e-01 7.0553414153745372e-02  -5.5345932473806057e-02 -2.9249758939284348e-01 3.5886155082501786e-01  -2.4507879779520930e-01 4.3832461059907660e-03 2.3842420439555639e-01  2.2874071424208781e-01 4.1450552257826012e-01 7.1919563519885144e-01  -5.0410568177217763e-01 1.0348703888708453e-02 -5.3494513387934373e-01  -4.3102963603891603e-01 -2.8749121714873965e-02 -1.9535824351393005e-01  -1.9207144291227884e-01 1.6639552654827969e-01 -2.5568930893916586e-01  -1.2763504606251808e-01 4.4335438038173143e-02 1.9772186126648789e-01  1.4069514207392190e-02 4.3617567004049190e-01 -2.6291680990184996e-01  3.5053997981441204e-01 -7.6151996278949918e-02 -2.8122915991693714e-01  -2.2449310825899949e-01 3.6776877998759859e-02 1.8408695536041011e-01  -1.4275057021555551e-01 2.1643150595412691e-01 1.1538475970695748e-01  -2.8813581948712702e-01 3.1557939284654765e-02 3.3049061392717671e-01  -7.8519496913968256e-02 1.9769972154374424e-01 2.5870895533623539e-01  3.0202640874847902e-01 -1.2864511134770162e-01 -1.7430616687487394e-01  -6.4058463734054230e-02 -1.9571125859560562e-01 -2.2567233106100895e-01  -6.4033129427789687e-02 -1.8791395130658595e-01 -9.1158043242305475e-02  1.8710727318181350e-01 2.1120323164717691e-01 -1.6791416363410844e-01  4.0562151819091874e-01 1.6631057927843923e-01 1.9057690203653813e-01  1.8373497229920768e-01 6.1084152277816141e-02 -1.6992753508226710e-02  -1.5966679604819381e-01 -9.3910685240259612e-02 8.4783543350565954e-02  -2.8299275124039719e-01 2.8537570063992247e-02 2.1083689555484986e-01  -2.0156524373822071e-01 -2.1779792254395289e-01 9.2133264665474668e-02  3.0681272513010582e-01 -2.3931601102807148e-02 -2.6261398485653348e-01  1.2224605637144699e-01 -7.3816799498376787e-02 7.3714202960025690e-02  6.3083326909705861e-01 -2.5478024580115628e-02 2.6779579775828888e-01  -1.1345536007831886e-02 -1.1199805782851509e-03 9.6476208966181518e-02  -4.5121457101963490e-02 -1.0958875675615948e-01 7.7995590461261352e-02  2.9065558020705473e-01 -1.4244693487069282e-02 2.4185051214914290e-02  1.2336327390185341e-01 -1.9401176552843064e-01 -7.9540876095408761e-02  4.0347929091532547e-01 -2.2471211048649131e-01 2.0066906880914236e-02  3.3831156213804514e-01 5.6507424413511720e-01 5.4070574100487670e-02  1.6362813846761765e-01 1.4764049974285981e-01 1.2914634221186744e-01  -1.8703761321820891e-01 -1.562333654756424