<?xml version="1.0"?>
<VTKFile type="UnstructuredGrid"  version="0.1"  >
<UnstructuredGrid>
<Piece  NumberOfPoints="8385" NumberOfCells="35823">
<Points>
<DataArray  type="Float64"  NumberOfComponents="3"  format="ascii">0 0 -4000  0 250000 -4000  250000 0 0  250000 250000 0  130000 0 -60000  130000 250000 -60000  250000 0 -60000  250000 250000 -60000  72147.7 166878.6 0  86225.3 177671.7 0  72082.2 161278 0  80407.60000000001 166683.7 0  66765.10000000001 151053.8 0  70533.5 147695.4 0  88829.10000000001 164696.8 0  62768.1 132621.8 0  114956.1 180662.6 0  63924.4 130258.4 0  156213.5 216508.7 0  94617.8 155302.3 0  144307.5 195630.5 0  87231.39999999999 141931.8 0  68256.5 121278.3 0  69835.5 115711.4 0  95984.2 132464.1 0  116918.1 151520.9 0  96139.8 122416.1 0  78677.39999999999 102260.8 0  93451.5 115391.6 0  111847.4 131476.2 0  107207 116320.3 0  142564.4 147908.4 0  121370.1 121838.1 0  82154.39999999999 83011.2 0  84152.3 84289.39999999999 0  99259 96094.39999999999 0  106151.5 94923 0  159682.5 139591.9 0  136050.5 110604.8 0  111591.5 84279.10000000001 0  126001.6 88238.2 0  105758.7 68122.8 0  151826.4 109709.5 0  197157.2 140577 0  129859.4 33265.4 0  140000 0 0  136000 250000 0  4857.142857142332 250000 -3857.142857142872  9714.285714284615 250000 -3714.285714285747  14571.42857143168 250000 -3571.42857142848  19428.57142857481 250000 -3428.571428571329  24285.71428571539 250000 -3285.714285714253  29142.85714285597 250000 -3142.857142857177  33999.99999999657 250000 -3000.000000000101  38857.14285713715 250000 -2857.142857143025  43714.28571427773 250000 -2714.285714285949  48571.42857141832 250000 -2571.428571428873  53428.57142855891 250000 -2428.571428571797  58285.71428569948 250000 -2285.714285714721  63142.85714284007 250000 -2142.857142857645  67999.99999998066 250000 -2000.000000000569  72857.14285712125 250000 -1857.142857143493  77714.28571426184 250000 -1714.285714286416  82571.42857140242 250000 -1571.428571429341  87428.571428543 250000 -1428.571428572265  92285.71428568359 250000 -1285.714285715189  97142.85714282417 250000 -1142.857142858113  101999.9999999648 250000 -1000.000000001036  106857.1428571053 250000 -857.1428571439606  111714.2857142459 250000 -714.2857142868847  116571.4285713865 250000 -571.4285714298085  121428.5714285271 250000 -428.5714285727327  126285.7142856677 250000 -285.7142857156564  131142.8571428107 250000 -142.8571428585083  250000 240000.0000000016 0  250000 230000.0000000032 0  250000 220000.0000000048 0  250000 210000.0000000064 0  250000 200000.0000000079 0  250000 190000.0000000095 0  250000 180000.0000000111 0  250000 170000.0000000127 0  250000 160000.0000000143 0  250000 150000.0000000159 0  250000 140000.0000000175 0  250000 130000.0000000191 0  250000 119999.9999999916 0  250000 109999.9999999825 0  250000 99999.99999998408 0  250000 89999.99999998568 0  250000 79999.99999998725 0  250000 69999.99999998885 0  250000 59999.99999999045 0  250000 49999.99999999205 0  250000 39999.99999999366 0  250000 29999.99999999526 0  250000 19999.9999999968 0  250000 9999.999999998399 0  135172.4137931034 0 -137.9310344827583  130344.8275862069 0 -275.8620689655166  125517.2413793104 0 -413.7931034482749  120689.6551724138 0 -551.7241379310333  115862.0689655173 0 -689.6551724137912  111034.4827586208 0 -827.5862068965494  106206.8965517242 0 -965.5172413793075  101379.3103448277 0 -1103.448275862066  96551.72413793117 0 -1241.379310344824  91724.13793103464 0 -1379.310344827582  86896.5517241381 0 -1517.24137931034  82068.96551724157 0 -1655.172413793098  77241.37931034504 0 -1793.103448275856  72413.79310344851 0 -1931.034482758614  67586.20689655196 0 -2068.965517241373  62758.62068965542 0 -2206.896551724131  57931.03448275886 0 -2344.827586206889  53103.44827586231 0 -2482.758620689649  48275.86206896573 0 -2620.689655172408  43448.27586206916 0 -2758.620689655167  38620.68965517257 0 -2896.551724137927  33793.103448276 0 -3034.482758620686  28965.51724137944 0 -3172.413793103445  24137.93103448287 0 -3310.344827586204  19310.34482758629 0 -3448.275862068963  14482.7586206897 0 -3586.206896551723  9655.172413793145 0 -3724.137931034482  4827.586206896551 0 -3862.068965517241  0 4999.999999999225 -4000  0 9999.999999998096 -4000  0 14999.99999999756 -4000  0 19999.99999999726 -4000  0 24999.99999999649 -4000  0 29999.99999999545 -4000  0 34999.99999999351 -4000  0 39999.99999999275 -4000  0 44999.99999999197 -4000  0 49999.9999999912 -4000  0 54999.99999999042 -4000  0 59999.99999998965 -4000  0 64999.99999998888 -4000  0 69999.99999998808 -4000  0 74999.99999998731 -4000  0 79999.99999998655 -4000  0 84999.99999998577 -4000  0 89999.99999998501 -4000  0 94999.99999998423 -4000  0 99999.99999998347 -4000  0 104999.9999999827 -4000  0 109999.9999999819 -4000  0 114999.9999999811 -4000  0 119999.9999999804 -4000  0 124999.9999999824 -4000  0 130000.0000000079 -4000  0 135000.0000000178 -4000  0 140000.000000017 -4000  0 145000.0000000163 -4000  0 150000.0000000155 -4000  0 155000.0000000147 -4000  0 160000.000000014 -4000  0 165000.0000000132 -4000  0 170000.0000000124 -4000  0 175000.0000000116 -4000  0 180000.0000000109 -4000  0 185000.0000000101 -4000  0 190000.0000000093 -4000  0 195000.0000000085 -4000  0 200000.0000000078 -4000  0 205000.000000007 -4000  0 210000.0000000062 -4000  0 215000.0000000054 -4000  0 220000.0000000047 -4000  0 225000.0000000039 -4000  0 230000.0000000031 -4000  0 235000.0000000024 -4000  0 240000.0000000016 -4000  0 245000.0000000008 -4000  138499.992698711 4754.026372277331 0  137093.2670052012 9536.639699345635 0  135699.8836753657 14323.17697982435 0  134242.0997113028 19090.39455387465 0  132631.3534429766 23807.82160930602 0  130751.3712685147 28423.75111080412 0  128562.4170940472 32902.44582968431 0  126285.2564027428 37336.77035579942 0  123661.3951409534 41572.18842203188 0  120466.1639654971 45392.17900234455 0  116742.7600150611 48701.57094013265 0  112599.2779558244 51459.89351581372 0  108052.7620132346 53498.30186482816 0  103362.6013075687 55186.61489180412 0  98626.9445524631 56744.1075396087 0  93895.10465571457 58313.07723732995 0  89213.61083253716 60025.29196098565 0  84659.98679375931 62049.90630856762 0  80423.72342827682 64664.16689082998 0  77079.46520597988 68320.91799726382 0  75401.03926413733 72984.18687963787 0  75132.31546441223 77953.39118957664 0  75517.79269400188 82922.72841733029 0  75994.12798690467 87884.97931497527 0  76141.03644053877 92865.72190814259 0  75577.6917399208 97812.27627089612 0  74056.71099135675 102551.9930892217 0  71898.80264107142 107043.8044784894 0  69421.09707510214 111369.0872951042 0  66791.23439747586 115604.1050970619 0  64120.91357323291 119813.8417572768 0  61505.46198361652 124057.7414488965 0  59050.55973913459 128395.9995763311 0  56903.24970482702 132893.1998504455 0  55303.81367464051 137609.8368688517 0  54543.69409163466 142530.9149478115 0  54488.96440186739 147512.6695308264 0  54974.77359561732 152472.3067464133 0  55867.62888085351 157375.8602543657 0  57059.2217642535 162216.0105874235 0  58457.1304431001 167000.9860755429 0  59967.68958253603 171751.8163324134 0  61481.85702780542 176501.4740946017 0  63249.74457712872 181161.0445509208 0  65477.30866714627 185617.8308927955 0  68245.7959420751 189759.2433519008 0  71520.4315061924 193514.3385976385 0  75350.61144867241 196685.7937683813 0  79773.17101542671 198974.8606729538 0  84378.90699153654 200882.4207250944 0  88911.60265377768 202954.8336515224 0  93435.45084417483 205047.09581866 0  98032.2666486997 206976.2210864664 0  102616.0836544937 208935.8107130805 0  107113.0495121478 211085.573258506 0  111372.3937621359 213667.5068784722 0  114843.2448044628 217203.7046179156 0  116698.1230832934 221806.0799432901 0  117775.060870244 226673.1998860401 0  119571.7838315423 231305.7208116875 0  122475.2761019627 235353.0279900247 0  125742.3595464658 239117.4724032586 0  129161.5121633181 242745.2442007751 0  132614.792595325 246340.7012191151 0  250000 250000 -8921.902778285936  250000 250000 -19170.47581238532  250000 250000 -30942.99472097832  250000 250000 -44466.06850109496  250000 230769.2307692338 -60000  250000 211538.4615384677 -60000  250000 192307.6923077015 -60000  250000 173076.9230769353 -60000  250000 153846.1538461692 -60000  250000 134615.384615403 -60000  250000 115384.615384597 -60000  250000 96153.84615383085 -60000  250000 76923.07692306468 -60000  250000 57692.30769229849 -60000  250000 38461.53846153233 -60000  250000 19230.76923076616 -60000  250000 0 -44466.06850109696  250000 0 -30942.99472111472  250000 0 -19170.47581244904  250000 0 -8921.90277830635  232227.1661023966 0 -60000  216296.9260375522 0 -60000  202018.2515568125 0 -60000  189219.9167941597 0 -60000  177748.4479527209 0 -60000  167466.2824799582 0 -60000  158250.1197834204 0 -60000  149989.4414908582 0 -60000  142585.1882295191 0 -60000  135948.5681760333 0 -60000  232227.1661023966 250000 -60000  216296.9260375522 250000 -60000  202018.2515568125 250000 -60000  189219.9167941597 250000 -60000  177748.4479527209 250000 -60000  167466.2824799582 250000 -60000  158250.1197834204 250000 -60000  149989.4414908582 250000 -60000  142585.1882295191 250000 -60000  135948.5681760333 250000 -60000  130000 244047.61904762 -60000  130000 238095.23809524 -60000  130000 232142.85714286 -60000  130000 226190.47619048 -60000  130000 220238.0952381 -60000  130000 214285.7142857199 -60000  130000 208333.3333333399 -60000  130000 202380.9523809599 -60000  130000 196428.5714285799 -60000  130000 190476.1904761999 -60000  130000 184523.8095238199 -60000  130000 178571.4285714399 -60000  130000 172619.0476190599 -60000  130000 166666.6666666799 -60000  130000 160714.2857142999 -60000  130000 154761.9047619199 -60000  130000 148809.5238095399 -60000  130000 142857.1428571599 -60000  130000 136904.7619047798 -60000  130000 130952.3809523998 -60000  130000 125000.0000000169 -60000  130000 119047.6190476054 -60000  130000 113095.2380
[...]
<PointData  Vectors="sample_prior"> 
<DataArray  type="Float64"  Name="sample_prior"  NumberOfComponents="3" format="ascii">3.1399955970678253e-03 -8.3713914153195276e-03 -1.9845267781952616e-03  3.2852376882455091e-03 -1.3685843958357832e-04 -5.5310368972285723e-03  -1.2965694645506500e-04 3.2370981638995917e-03 2.7026871560078603e-03  -2.0640140952925337e-03 2.1950130359995861e-03 6.3446346544039189e-04  -3.7085358760678357e-03 -1.7354412388368662e-03 -2.8563207318570614e-03  -2.1805584374272667e-03 1.2937827533444628e-03 -4.8235856488252992e-04  -1.1682561379778010e-03 2.4659281910237099e-03 5.1034233528733106e-03  -4.0983717632816618e-03 -2.0947233648857706e-03 4.7523229836144142e-04  -1.5374710990315535e-03 -7.2708654134854959e-04 -4.9785354728363695e-04  -1.8279582182959154e-03 -4.3428023395028357e-04 -2.6967647216228807e-03  -1.9315354248432394e-03 -2.3797463953134044e-04 -2.9914662933851790e-04  -6.4151257340111533e-04 -3.6966290215569519e-04 -1.3748468647483201e-03  -1.8673031757250134e-03 -1.0912798895626945e-03 3.5072828989394437e-04  -1.9521252154510030e-03 -3.5017135434656899e-04 4.2714210592310946e-04  -1.5011352824028221e-03 -8.7202957007814004e-04 -1.6816819052591851e-03  -3.3495607931907996e-03 -2.0385699271058115e-03 4.5947991220307837e-04  -1.9636524667716250e-03 8.2512641877669195e-04 -1.3713118355163775e-03  -3.7088364667264549e-03 -2.0791933659001683e-03 4.3626923029352495e-04  -1.5398141177851419e-03 1.1137966023546206e-03 -1.1299209372033813e-03  -2.7088353579984041e-03 -5.4954174974345467e-05 -1.0731351327128626e-03  -1.3029237474937419e-03 7.9648726082973739e-04 -1.1538921702177617e-03  -3.7865583496760891e-03 1.3790506615135706e-04 -1.1555127895896719e-03  -3.3197051017513275e-03 -1.7942481610936064e-03 1.1055539656002094e-03  -2.9702662718246479e-03 -1.1050799157353651e-03 1.6573738152541896e-03  -3.3715100296398239e-03 3.1390000769379351e-04 -6.4935742061872923e-04  -3.3523428087682281e-03 8.7064560549468702e-04 3.9106230787775575e-04  -3.0240501168603772e-03 9.5291579178429593e-04 -4.9834532391344758e-04  -3.2444379850504429e-03 -3.8812467100350379e-04 1.0831268916102212e-03  -3.2901427805192497e-03 1.1352030167875141e-03 -3.7684765739425782e-04  -2.7449175020711281e-03 2.1865351724773309e-03 -1.4230201297796873e-03  -2.2822404477353111e-03 2.2257643543992507e-03 -9.5106838286233689e-04  -2.4385989565304097e-03 2.4066671076140998e-03 -1.1754731071722195e-03  -2.8728375120553647e-03 3.0513605282327539e-03 -2.4003646644711754e-03  -3.8346010505778522e-03 -2.0641368937623990e-03 -2.9273271463164556e-04  -3.8209336036629932e-03 -1.5835830350212979e-03 -2.4706572147428812e-04  -1.2161823169491372e-03 1.3133639455184412e-03 -5.9536170759352509e-04  -1.0176910808974654e-03 1.5264846801739292e-03 -1.3624809929227563e-03  -1.7310832995626963e-03 2.2767472338252135e-03 -4.1777239861192467e-04  -3.4297537353743934e-04 2.3718716671130369e-03 -1.8873166696668103e-03  2.3452345007558787e-04 1.6243138853946405e-03 -2.7117818454411094e-03  1.2224505455898768e-03 2.8120713101882919e-03 -1.5639734750945986e-03  -4.4222288722722873e-04 3.6326297537428182e-04 -1.8009644407821657e-03  5.0778118813112766e-04 1.7146702446786521e-03 -5.0669539534669932e-04  -1.4169860475646910e-03 4.6785779564781989e-04 8.9420295402331193e-04  -9.9373031913474485e-04 1.7655856787862606e-03 -1.4293855341234187e-03  -6.0030355698953365e-04 2.1345080430404632e-05 -6.2212079919139672e-05  -8.7094241946912955e-04 3.7872667871809422e-04 -1.9671943564659152e-03  3.9526031792490781e-03 4.7256238634683782e-04 -6.7502236885290962e-03  3.9953449175832000e-03 9.2293256359212274e-04 -8.5056675787835972e-03  4.7267129118250296e-03 1.3985341783202740e-03 -7.8480747971596872e-03  3.1509403702483494e-03 5.7826015829049880e-04 -7.1768474378534229e-03  2.7178165142528292e-03 -5.0830451372464258e-04 -6.9021300062149264e-03  3.1427332087813750e-03 -5.8065347872576605e-04 -6.9185054663895365e-03  3.5136357575870649e-03 -8.3747204314031957e-04 -5.8385351086685548e-03  4.1844284330428026e-03 -9.6547404683136205e-04 -4.9404641780682254e-03  4.3299683466606542e-03 -4.0094327573242237e-04 -3.8285873002422586e-03  3.8447364248281614e-03 2.2379515503517366e-04 -3.4255715683497263e-03  3.7591987155541386e-03 -1.6747800577301630e-04 -3.0629066125114636e-03  2.8955026904324277e-03 -3.2736175175254950e-04 -1.8386378186603326e-03  2.5964247195654684e-03 -5.8471778564209262e-04 -1.2293255830410977e-03  1.5363753553029346e-03 -1.2084278923132578e-03 -4.6665233920597691e-04  1.0084968116766018e-03 -6.5758096518313410e-04 5.7063116581248492e-05  -2.2379873706055166e-04 -7.4602978178030352e-04 8.4142350998190870e-04  -8.8708398408728127e-04 -3.5399684379046591e-04 1.1333266342181722e-03  -1.0752040398111782e-03 -9.7693684118646670e-04 6.7772412101694776e-04  7.7504521529179484e-05 -1.5868354089141805e-03 -8.7494319521783651e-05  1.1600778812286805e-03 -1.1058441974272904e-03 -1.6685814568800895e-03  -2.5155415109166890e-06 -1.1295109202715942e-03 -2.0493361092492799e-03  5.1553378420145311e-04 1.1912644796236762e-04 -1.3169454190945641e-03  1.0462123512878898e-03 6.3027063417345143e-04 -7.4789740068458271e-04  5.9912138574242811e-04 3.9501331836828300e-05 -1.3255187898658415e-03  4.9770222804002538e-04 1.8979383957645055e-04 -2.0058365160152670e-03  1.4458061301535183e-04 3.8955579310682200e-04 -2.6416044600395248e-03  -2.2522044747313538e-04 -2.9105087819809699e-05 -2.5314839716777189e-03  -5.6492371722306734e-04 2.1755837995728693e-03 1.0984351709698449e-03  -4.9656560522179534e-04 1.1248023173379986e-03 1.8678394961851497e-03  -4.6181948190607291e-04 4.5978699219127749e-04 1.8545152489770041e-03  -5.0577232466737191e-04 1.6605299609851205e-04 2.9625122019163757e-05  -2.3682090231533554e-04 -4.0894938023799981e-04 2.2766235512805389e-04  -1.1738622028342879e-03 -4.8972661907591315e-04 2.2232308728104295e-04  -1.0988671904400512e-03 4.7463023085523611e-04 -6.6051843371482644e-04  -1.1052114785196510e-03 -3.4174363499224020e-04 -1.0481053843392670e-04  -1.3151321829955474e-03 -5.3367190274085244e-04 9.0352115531975750e-04  -2.0611602350826203e-03 -6.7321549457378949e-04 1.8384175761314476e-03  -8.1799574975732314e-04 -1.0989883738415892e-03 3.3597586178596320e-04  -5.6377663669317354e-04 -2.1174929976058823e-03 1.6465577479156891e-03  4.0559062387818463e-04 -6.3133448793296313e-04 2.0641429231648030e-03  7.1289023525470053e-05 1.1777187741485290e-04 2.2024819529590321e-03  5.4390054932670526e-04 1.9269308307040141e-04 1.5803027303609427e-03  1.2429899788854030e-03 1.2457777608301179e-03 2.4275637775253356e-03  1.6402112852203006e-03 1.7531658898145440e-03 1.8384861740256947e-03  1.0032629453020786e-03 1.0896107612279806e-03 1.9451017550135075e-03  3.4874211100813728e-04 1.4400523621119813e-03 7.8816437878145677e-04  1.0670584057896470e-03 1.4251482428365031e-03 1.2089042945522342e-03  3.9560454658523191e-04 6.5796740021604354e-04 3.0063843785727560e-04  2.8281353239931314e-04 7.6473108054218451e-04 1.6461843956026220e-03  1.0857939348719924e-03 1.1046965166410596e-03 2.5496719277821405e-03  4.1576247297524623e-04 2.8680446503386464e-03 2.9649888057904895e-03  1.0691856562091867e-04 -1.0548336717834225e-04 -7.1363403574107730e-04  -5.5602411222673302e-04 -7.1218207485867178e-04 -4.6050897200814784e-04  -8.5915201959477889e-04 -8.0053305082568240e-04 -2.1299508069274204e-04  -9.3634044430213677e-04 -6.5505020526622352e-04 1.0835621295337929e-03  -6.4095603303984390e-04 -3.6702595856814662e-04 1.1291479584977285e-03  -5.4923233154057058e-04 1.4661770490592403e-04 1.1671574296770004e-03  -2.0968630588128373e-04 5.3261604839250980e-04 1.1589585022188011e-03  -2.0323717456006412e-04 7.6090002580003822e-05 1.5668590275492872e-03  4.0639013547002893e-04 -1.0401762165793066e-04 1.8233275607616201e-03  2.7838005965428824e-04 -1.0341055307314241e-03 2.4322414952673652e-03  -6.2502827954584821e-05 -1.9495439664616687e-03 3.1194739049105543e-03  -4.4531614542013521e-04 -1.7910859113489401e-03 2.6682898683746746e-03  -4.4896719642830216e-04 -1.7419282882411853e-03 2.8072939889873453e-03  1.3412519947912516e-04 -1.1772259155372140e-03 2.7554679711922509e-03  1.8833705172647131e-04 -2.5388189934103926e-03 2.1112951148841348e-03  -8.4377569381708539e-05 -3.3698413258167192e-03 2.0998795179434037e-03  -3.2186404687233261e-05 -2.6816108068775917e-03 8.0203716622494355e-04  3.6222674721141882e-04 -3.0825127988985085e-03 3.0476973240862261e-04  1.2379897799160847e-03 -3.8709184159692283e-03 8.4799361043357837e-04  2.8878167672346084e-03 -4.8712447315493968e-03 1.7627502766468994e-03  2.9357452930311011e-03 -5.5846043204084332e-03 2.2925471429900719e-03  2.6747224386812064e-03 -7.0456600275456884e-03 1.5518557834349786e-03  2.4738104335422276e-03 -7.3996601606636974e-03 -8.6270389159872796e-05  3.1759540953682319e-03 -8.1442265353720514e-03 -1.3467589597591410e-04  4.1829215375516768e-03 -9.0585277256993741e-03 -1.6485059941183223e-04  4.9700383682585482e-03 -9.5431296163033131e-03 5.3060324796452081e-04  5.1354309645539930e-03 -9.9709051029561787e-03 1.3254874282822187e-03  3.4051128334699134e-03 -9.6346396847085160e-03 1.1318558236817854e-04  2.6203635623340753e-03 -7.6226363412309622e-03 -1.3412884647023601e-03  2.4846149498033310e-03 -6.3296825500001718e-03 -8.7168207766196015e-05  1.7646522908494101e-03 -5.2328173640819754e-03 5.3143321787961105e-04  1.0728576296964657e-03 -3.1530323103919041e-03 1.3048777161964510e-03  5.4234097562847036e-04 -1.0615232648436017e-03 3.2946304774083553e-03  -4.3151574666436558e-04 1.1032728508922399e-03 3.6141919300694087e-03  -3.0882822195491080e-03 2.4345797191180720e-03 1.8871746011517563e-03  -5.0616872946490045e-03 1.9205004911985206e-03 -2.7745212078555265e-04  -7.0121388014600314e-03 2.2653941270103953e-03 -1.0574826467567341e-03  -8.6878228014497638e-03 9.7011472100942220e-04 -8.4136687255213771e-04  -8.9537930728132136e-03 -5.7005037711947541e-04 -9.3874000054450517e-04  -8.6071870708275440e-03 -2.7745096991701624e-03 -5.1508417951671808e-04  -6.5705161263730320e-03 -4.2506200201047209e-03 -1.0012541531976716e-03  -6.1356019530566727e-03 -4.4082845987029745e-03 1.1893501943003637e-04  -6.1208935834126807e-03 -4.6333298359789695e-03 2.0539886014835332e-03  -6.1919938529622657e-03 -4.3017467725056614e-03 3.4825912043887049e-03  -5.6986954570437953e-03 -2.7172370938426155e-03 4.4286756324005954e-03  -4.6015413553366557e-03 -1.5137032280063635e-03 3.4733488508114987e-03  -3.6484051715266275e-03 -1.0366296488220083e-03 3.3665189748159491e-03  -2.0430822293069921e-03 -1.8929275158631961e-03 2.8331383565722680e-03  -1.2001746418787158e-05 -2.9541010250793906e-03 1.3059141275522589e-03  -2.2205595696404281e-03 -1.4240437604899295e-03 5.3066538842609786e-04  -4.8399143671081640e-03 1.2760862672690730e-04 1.2706615852493394e-03  -4.5169871763492461e-03 1.5418601000963222e-03 -1.3367179492690870e-03  -3.9911976086518504e-03 7.4484177176189646e-04 -4.0185967079775162e-03  -3.2394614472762377e-03 -1.0652795078097798e-03 -4.2381330694752977e-03  -3.0685052989951429e-03 -1.9601910326874834e-03 -3.0474876601533137e-03  -2.5575689014521851e-03 -3.1256320954418226e-03 -3.6247730499742682e-03  -3.2270574401319901e-03 -2.3327683454050789e-03 -2.4134334736994880e-03  -3.0075500229999812e-03 -2.0057275536336195e-03 -2.3971065147955183e-03  -1.2832240419177010e-03 -1.4518060790456239e-03 -3.8091918805410216e-03  -4.3306666137765013e-05 -1.3687628345651717e-03 -4.8559079724727963e-03  -3.2486530789473816e-04 -1.6895596482455499e-03 -5.5581606062856089e-03  -4.3832540022152567e-04 -2.4224958046640470e-03 -5.5192200471219218e-03  -2.5426709088344701e-04 -3.2899016369084214e-03 -4.2049240960769759e-03  -2.1840702592888115e-03 -3.9022113790259847e-03 -3.6364530682509119e-03  -2.9807854807028813e-03 -2.7306470491903273e-03 -1.8859370027744311e-03  -3.2720022597922350e-03 -5.6864424710839005e-04 1.2061965390216166e-04  -1.8325065167976637e-03 1.0358605938761008e-03 -1.2160715184434628e-03  -2.9932708656559225e-03 2.2246706004710685e-03 -1.6759794047661891e-03  -1.4553910365743196e-03 1.7202999808171714e-03 -4.4874847769815250e-03  -1.1717349133574676e-03 7.4109295071789064e-04 -6.3668914326592101e-03  -3.1012809377796630e-04 -4.2391779576413666e-04 -6.2590577789195983e-03  1.6038424789397814e-03 -1.4858463463891182e-03 -5.0225650257037860e-03  1.5970153026189959e-03 -1.6528714791899171e-03 -6.7776957455370698e-03  1.0112870079227621e-03 -1.5380657956036185e-03 -7.3223732300889063e-03  1.5697714906518826e-03 -2.0892811998929161e-03 -5.9050602007316771e-03  2.2616916708041519e-03 -7.9079868171236798e-04 -5.1254660891597893e-03  2.9284499027656839e-03 -1.0117201426670896e-04 -5.1240259941299996e-03  -8.2137327700153306e-04 -4.2890542293869003e-04 -3.2210832971951101e-04  -7.2160541272443856e-04 -9.0501083798092183e-05 -4.8133701988101332e-04  -7.0601658346207440e-04 6.3375431589391383e-04 -4.4118905421426560e-04  -7.7132148889106364e-04 1.0414351138750587e-03 -5.5409391921222302e-04  -1.1729796997373646e-03 1.2003322516838985e-03 -1.1661503823415624e-03  -1.1269758752918326e-03 1.5230546898994805e-03 -9.3669219261393883e-04  -9.4158757474374286e-04 1.6322431684167777e-03 -1.3703479934547283e-03  -9.2395047588289579e-04 2.4480613837842007e-03 -1.5679303385055003e-03  -1.1728341211415590e-03 2.0711558089073750e-03 -1.5686651579906799e-03  -9.3493691445155802e-04 2.0583027403923886e-03 -2.2910462921077938e-03  -5.1117240589175223e-04 2.0835933128366506e-03 -2.2361702712885199e-03  -3.0114005460894327e-04 1.4428994481887566e-03 -1.8233380953055823e-03  -7.4825690021848546e-04 1.0447672831320315e-03 -1.7422294686070356e-03  -1.4311715491853404e-03 7.5178954009110519e-04 -1.4741666918502668e-03  -1.7019971095303843e-03 6.5477529845383014e-04 -1.3716245070595310e-03  -2.2683679958846988e-03 4.2526954027610769e-04 -2.0013852468500899e-03  -2.6097619931849882e-03 -3.6184997673718390e-05 -1.8258000087386130e-03  -2.6988971164766291e-03 -8.5806516142872139e-04 -1.0606406060099688e-03  -2.9317972441232198e-03 -1.8938073580252899e-03 -3.9747156855337408e-04  -2.8295558156983900e-03 -2.3826139298729269e-03 1.4515692510164743e-04  -3.2366305669005542e-03 -2.7763930776691140e-03 1.7096865033116435e-04  -3.2782089151751196e-03 -3.0639206159195432e-03 -2.9630644157948877e-04  -3.2956001520264080e-03 -2.5782077483506964e-03 -2.6034895392291010e-04  -3.6070092933873179e-03 -3.0766972047356323e-03 -6.5978939318854683e-05  -3.0239842077746937e-03 -2.1265213756455339e-03 5.9942727921585121e-04  -2.8467695689769761e-03 -8.3905557340171024e-04 1.3530287739041463e-03  -3.1059111681862529e-03 -4.5461816768924433e-04 1.5985046915943349e-03  -3.2153455657370857e-03 -1.0656266885381365e-03 1.7436545990021973e-03  -3.2655754712052217e-03 -1.0663916395574498e-03 1.8652847459246088e-03  -3.3113294109523642e-03 -1.6547665146074953e-03 1.7980482754898480e-03  -3.4432777155660073e-03 -1.5262525260923397e-03 1.2078304720634318e-03  -3.6460090326769093e-03 -1.8887754617546403e-03 7.6027605002741889e-04  -3.5433887657846950e-03 -2.2721778267805965e-03 5.5893836342705162e-04  -3.1799239191903144e-03 -1.9264617579125213e-03 2.1685344420711893e-04  -2.7277711577634403e-03 -1.2216743817887613e-03 1.7209070400370303e-04  -3.3216551765110815e-03 -1.1019319494940053e-03 -2.4912296149979607e-04  -2.6975136899879907e-03 -1.0792725951270549e-03 -1.1715459879575352e-03  -2.0606565756226378e-03 -1.4916494439219097e-03 -1.5073857228232940e-03  -2.2219200328255063e-03 -1.9753365064421775e-03 -1.7752937334323965e-03  -2.5692932020202628e-03 -2.0622770299548892e-03 -2.1583111842773672e-03  -2.4492103157871849e-03 -1.3218497703080230e-03 -1.9062377226255714e-03  -1.8162498020856386e-03 -8.2136090510431857e-04 -1.5231346202406778e-03  -1.4751331918117390e-03 -6.6155894567382627e-04 -1.6846030858286556e-03  -1.2093187197028856e-03 -8.4729290767829053e-04 -1.3157885867999229e-03  -1.1408474902798410e-03 -1.2144692975853875e-03 -1.0633055555318801e-03  -1.5943223145377383e-03 -1.0506092064260320e-03 -1.2409638719347786e-03  -1.8572703641677138e-03 -7.0497000394353351e-04 -1.7722724212870535e-03  -1.5811327650543702e-03 -9.2817913572176857e-04 -1.1979884954553368e-03  -1.0725312511434969e-03 -1.2307879026771317e-03 -1.4956966436192609e-03  -1.0525938302716855e-04 -1.4552273026363464e-03 -1.6132645743753085e-03  2.6440165901882984e-04 -8.7633085928059734e-04 -1.5232459153266210e-03  -9.9680804088173684e-05 1.2422005913297299e-04 -1.2471354074756072e-03  -1.9525900671496911e-05 6.9717389961051118e-05 -1.0711918653009548e-03  -3.8190317873136530e-05 2.7192957078358220e-04 -7.7300472734182770e-04  -6.9002956854087431e-04 4.7037952847923129e-04 -1.2339445086283947e-03  -9.3858690071774826e-04 -2.1286384814457173e-04 -1.5443412600987809e-03  -1.3663209657811526e-03 -1.3429928390984233e-04 -1.7459490241155929e-03  -1.2577850425749232e-03 -4.0421268547108407e-04 -2.3301284822222451e-03  -1.0163060001827705e-03 -1.5716520459192716e-04 -1.9830403291411628e-03  1.4182280155066823e-04 -6.8048065904693163e-04 -1.5201791487457566e-03  5.0596072433187872e-04 -1.4439576802268903e-04 -1.7476753782681366e-03  -1.2670116276834842e-04 5.8844591224411402e-05 -2.1999428392150107e-03  -5.1055197774109169e-04 1.0617289656978878e-05 -2.2391232171047929e-03  -5.6588462605385698e-04 -5.7478720082166875e-05 -2.4617225523080816e-03  -1.0972561076091462e-03 2.0154310040946472e-03 4.2573290012584957e-04  8.1835738976950058e-05 2.5311199139702433e-03 2.1106922723501454e-03  -7.7319100284952281e-04 8.3999212330233288e-04 1.5004387758513619e-03  -2.1228972647108165e-03 -3.6878181911487661e-04 2.0361756002772327e-03  -3.0765746398300048e-03 3.0492547554589520e-04 3.9486070989201472e-04  -2.5690476531378516e-03 1.9163545565791347e-03 3.2001887659933819e-04  -1.4073548093112146e-03 1.5792749523240164e-03 1.5646515431827449e-03  -5.1014189074818895e-04 8.0154560425889799e-04 -1.3350704168369715e-03  2.7146158694547179e-04 -5.7853702047362237e-05 -1.1182401025565186e-03  -5.7581475196058268e-04 -1.0798131983842511e-03 -7.0627675465594487e-04  9.3926499035588130e-05 -1.4568996732558291e-03 6.5707102190400916e-04  1.7998447281452228e-03 8.4291820086989668e-04 2.0652184798412711e-03  2.2564476271528687e-03 2.1936485890501605e-03 2.1885045690378268e-03  1.7399037237996033e-03 1.9768705255816597e-03 8.3471726783059680e-04  4.9822849941174707e-04 7.1204182287921036e-04 2.0844057210631412e-03  -2.1179765976778503e-04 2.1849045101233347e-03 5.3682838769835949e-03  -2.0094065236694094e-04 2.1958159045282139e-03 5.2846534798901773e-03  -5.6875516538894733e-04 1.1865332499139910e-03 5.0653984068988458e-03  -5.5617949431921237e-04 1.8250126889283991e-03 4.1511121168946044e-03  1.8285411906139088e-06 2.7287470721124424e-03 3.2430001169340404e-03  -9.2259497296349178e-04 1.4117346326583948e-03 5.0484226727199382e-03  -1.2818284730327981e-03 -1.3180591030524393e-03 4.0637951460472492e-03  -2.0224428094843187e-03 -2.2544931739408246e-03 2.5511972568400447e-03  -2.8558699278979434e-03 -2.0457000124895664e-03 8.3920316050167321e-04  -2.3817807975151234e-03 -9.2578004625314949e-04 -1.0464567705168969e-04  -7.7980655363607066e-04 -2.0382668742716388e-04 -5.5570394786589759e-04  -1.4181969574248918e-03 5.7337458819767761e-04 -1.0192540167340135e-03  -2.0020707083399972e-03 3.7975716944834258e-05 -1.9493933612736276e-03  -2.8226551343819993e-03 -4.7816011337233646e-04 -2.2219134965221804e-03  -3.3351431049260648e-03 -1.3130174721845765e-03 -1.9400364579709533e-03  -2.3006610959899533e-03 -1.6511924621635755e-04 1.2880162082404855e-03  -2.4765817388499060e-03 -3.5047074001425254e-04 1.3211858060340014e-03  -3.1983719500775533e-03 4.3522180109828196e-04 8.8785979462433634e-04  -1.5562272579245165e-03 -4.7734605726545515e-05 -2.9267589846416515e-04  -1.4992172233059924e-03 -5.2914315079065982e-05 1.3878682998267735e-04  -1.7286287903798272e-03 -4.6268529701439957e-04 -1.2218863785819730e-03  -2.9441896200983557e-03 1.8222758928261023e-04 -9.9089746065674248e-04  -2.4540558639838655e-03 1.4683