<?xml version="1.0"?>
<VTKFile type="UnstructuredGrid"  version="0.1"  >
<UnstructuredGrid>
<Piece  NumberOfPoints="3594" NumberOfCells="14547">
<Points>
<DataArray  type="Float64"  NumberOfComponents="3"  format="ascii">0 0 -4000  0 250000 -4000  250000 0 0  250000 250000 0  135000 0 -60000  135000 250000 -60000  250000 0 -60000  250000 250000 -60000  65308.5 173604.8 0  78441.2 185529.2 0  65707.89999999999 168017.6 0  73555.60000000001 174095.8 0  61257.8 157386.9 0  65291.6 154352.5 0  82112.3 172814.3 0  58804.1 138685.6 0  106822.8 190893.8 0  60152.4 136426.2 0  144960.9 230041.9 0  88660.10000000001 163931.9 0  134829.2 208246.3 0  82409 149993.8 0  65214.4 127836 0  67249.7 122418.9 0  91916.7 141284.3 0  125498.1 99698.5 0  111195.9 162013.4 0  92905.39999999999 131283.2 0  77176.5 109747.4 0  90809.3 124059.5 0  107806.1 141615.9 0  104439.5 126126.3 0  137051.8 160541 0  118095 132800.4 0  82238.39999999999 90851.5 0  84123.2 92291 0  98197.5 105309.4 0  105163 104713.8 0  154799.8 153672.9 0  133655.9 122823.1 0  111467 94557.3 0  106995.1 77971.8 0  149450.7 123239.8 0  192061 157764 0  133903.2 45232 0  140000 0 0  136000 250000 0  9714.285714284615 250000 -3714.285714285747  19428.57142857481 250000 -3428.571428571329  29142.85714285597 250000 -3142.857142857177  38857.14285713715 250000 -2857.142857143025  48571.42857141832 250000 -2571.428571428873  58285.71428569948 250000 -2285.714285714721  67999.99999998066 250000 -2000.000000000569  77714.28571426184 250000 -1714.285714286416  87428.571428543 250000 -1428.571428572265  97142.85714282417 250000 -1142.857142858113  106857.1428571053 250000 -857.1428571439606  116571.4285713865 250000 -571.4285714298085  126285.7142856677 250000 -285.7142857156564  250000 240000.0000000016 0  250000 230000.0000000032 0  250000 220000.0000000048 0  250000 210000.0000000064 0  250000 200000.0000000079 0  250000 190000.0000000095 0  250000 180000.0000000111 0  250000 170000.0000000127 0  250000 160000.0000000143 0  250000 150000.0000000159 0  250000 140000.0000000175 0  250000 130000.0000000191 0  250000 119999.9999999916 0  250000 109999.9999999825 0  250000 99999.99999998408 0  250000 89999.99999998568 0  250000 79999.99999998725 0  250000 69999.99999998885 0  250000 59999.99999999045 0  250000 49999.99999999205 0  250000 39999.99999999366 0  250000 29999.99999999526 0  250000 19999.9999999968 0  250000 9999.999999998399 0  130000 0 -285.714285714285  120000 0 -571.4285714285701  110000.0000000001 0 -857.1428571428546  100000.0000000001 0 -1142.857142857139  90000.00000000017 0 -1428.571428571424  80000.0000000002 0 -1714.285714285709  70000.00000000025 0 -1999.999999999993  60000.00000000026 0 -2285.714285714278  50000.00000000023 0 -2571.428571428565  40000.00000000019 0 -2857.142857142852  30000.00000000015 0 -3142.857142857139  20000.00000000009 0 -3428.571428571426  10000.00000000004 0 -3714.285714285713  0 9999.999999998096 -4000  0 19999.99999999726 -4000  0 29999.99999999545 -4000  0 39999.99999999275 -4000  0 49999.9999999912 -4000  0 59999.99999998965 -4000  0 69999.99999998808 -4000  0 79999.99999998655 -4000  0 89999.99999998501 -4000  0 99999.99999998347 -4000  0 109999.9999999819 -4000  0 119999.9999999804 -4000  0 130000.0000000079 -4000  0 140000.000000017 -4000  0 150000.0000000155 -4000  0 160000.000000014 -4000  0 170000.0000000124 -4000  0 180000.0000000109 -4000  0 190000.0000000093 -4000  0 200000.0000000078 -4000  0 210000.0000000062 -4000  0 220000.0000000047 -4000  0 230000.0000000031 -4000  0 240000.0000000016 -4000  134615.5786831678 8376.221222376078 0  129135.8381374389 16690.61556165003 0  123693.3119097638 25029.34528065769 0  118458.7304757098 33499.41630675747 0  114183.5561631282 42453.40693221996 0  117152.9012549134 51656.5775220433 0  109640.5189223821 56772.26946740811 0  99783.22349336625 58163.79074226946 0  89906.64048415456 59427.041153887 0  80231.83368741472 61714.93090982783 0  73457.07599492084 68333.04562829909 0  74666.1562536891 78126.62096439983 0  77477.57171300898 87678.05180735435 0  78461.83411646895 97534.63399308435 0  75049.04009726809 106816.2708870931 0  69538.50964765088 115103.6313494232 0  63598.75337311435 123095.8011052612 0  58118.08704720287 131402.6075281692 0  54672.56885839759 140685.5429709587 0  54507.01644649181 150612.6283068675 0  56360.01451579022 160386.8607035369 0  59277.85033353963 169905.2699317088 0  62638.60576621335 179274.2426304358 0  68212.99295126265 187459.3754999009 0  75814.40529046141 193858.3467082375 0  84761.00503602097 198204.6515231062 0  94061.92665129391 201734.182040823 0  103676.4565927747 204325.1412130333 0  112974.540309108 207830.3235759034 0  118972.4630267572 215380.3369922852 0  120264.8170507578 225241.997356352 0  123444.1757132735 234565.2722630062 0  129527.245366261 242435.1534677757 0  250000 250000 -9999.999999997535  250000 250000 -19999.99999997662  250000 250000 -29999.9999999377  250000 250000 -39999.99999995799  250000 250000 -49999.999999979  250000 240000.0000000016 -60000  250000 230000.0000000032 -60000  250000 220000.0000000048 -60000  250000 210000.0000000064 -60000  250000 200000.0000000079 -60000  250000 190000.0000000095 -60000  250000 180000.0000000111 -60000  250000 170000.0000000127 -60000  250000 160000.0000000143 -60000  250000 150000.0000000159 -60000  250000 140000.0000000175 -60000  250000 130000.0000000191 -60000  250000 119999.9999999916 -60000  250000 109999.9999999825 -60000  250000 99999.99999998408 -60000  250000 89999.99999998568 -60000  250000 79999.99999998725 -60000  250000 69999.99999998885 -60000  250000 59999.99999999045 -60000  250000 49999.99999999205 -60000  250000 39999.99999999366 -60000  250000 29999.99999999526 -60000  250000 19999.9999999968 -60000  250000 9999.999999998399 -60000  250000 0 -49999.99999997466  250000 0 -39999.99999999574  250000 0 -30000.00000007532  250000 0 -20000.00000005069  250000 0 -10000.00000002534  240416.6666666667 0 -60000  230833.3333333333 0 -60000  221250 0 -60000  211666.6666666667 0 -60000  202083.3333333333 0 -60000  192500 0 -60000  182916.6666666667 0 -60000  173333.3333333333 0 -60000  163750 0 -60000  154166.6666666667 0 -60000  144583.3333333333 0 -60000  240416.6666666667 250000 -60000  230833.3333333333 250000 -60000  221250 250000 -60000  211666.6666666667 250000 -60000  202083.3333333333 250000 -60000  192500 250000 -60000  182916.6666666667 250000 -60000  173333.3333333333 250000 -60000  163750 250000 -60000  154166.6666666667 250000 -60000  144583.3333333333 250000 -60000  135000 240000.0000000016 -60000  135000 230000.0000000032 -60000  135000 220000.0000000048 -60000  135000 210000.0000000064 -60000  135000 200000.0000000079 -60000  135000 190000.0000000095 -60000  135000 180000.0000000111 -60000  135000 170000.0000000127 -60000  135000 160000.0000000143 -60000  135000 150000.0000000159 -60000  135000 140000.0000000175 -60000  135000 130000.0000000191 -60000  135000 119999.9999999916 -60000  135000 109999.9999999825 -60000  135000 99999.99999998408 -60000  135000 89999.99999998568 -60000  135000 79999.99999998725 -60000  135000 69999.99999998885 -60000  135000 59999.99999999045 -60000  135000 49999.99999999205 -60000  135000 39999.99999999366 -60000  135000 29999.99999999526 -60000  135000 19999.9999999968 -60000  135000 9999.999999998399 -60000  9760.266420117418 0 -5952.053284023483  19520.53309387125 0 -7904.10661877425  29307.1102415074 0 -9718.421407375839  39104.7333719938 0 -11473.30036109216  48875.83924532436 0 -13369.19882213981  58571.87012930932 0 -15613.67939664691  68124.11986543986 0 -18408.53002372226  77527.76485865096 0 -21667.33907869995  86719.09466349281 0 -25482.98540480309  95631.92793098884 0 -29908.59492259344  104180.5528547143 0 -35003.66989024555  112449.6580983703 0 -40542.62450796275  120509.52686276 0 -46382.42388125008  127994.6878848568 0 -52930.54997290741  9760.266420117418 250000 -5952.053284023483  19520.53309387125 249999.9999999999 -7904.10661877425  29307.1102415074 250000 -9718.421407375839  39104.7333719938 250000 -11473.30036109216  48875.83924532436 250000 -13369.19882213981  58571.87012930932 250000 -15613.67939664691  68124.11986543986 250000 -18408.53002372226  77527.76485865096 250000 -21667.33907869995  86719.09466349281 250000 -25482.98540480309  95631.92793098884 250000 -29908.59492259344  104180.5528547143 250000 -35003.66989024555  112449.6580983703 250000 -40542.62450796275  120509.52686276 250000 -46382.42388125008  127994.6878848568 250000 -52930.54997290741  145499.999999982 250000 0  154999.999999964 250000 0  164499.999999946 250000 0  173999.999999928 250000 0  183499.99999991 250000 0  192999.9999998977 250000 0  202500.00000009 250000 0  212000.000000072 250000 0  221500.000000054 250000 0  231000.000000036 250000 0  240500.000000018 250000 0  240000.0000001065 0 0  230000.0000002129 0 0  220000.0000003194 0 0  210000.0000004258 0 0  200000.0000005323 0 0  190000.0000006387 0 0  180000.0000006325 0 0  170000.0000004744 0 0  160000.0000003162 0 0  150000.0000001582 0 0  81541.63335874674 35498.13281562441 -1158.202651726381  46004.68664141578 194254.3443995834 -2060.726341037222  32687.99629987251 175105.6839569158 -2219.415882311186  36663.59507600099 63079.34846719183 -2167.093431592842  52002.09530018299 134928.3526843132 -266.7613614382204  59599.13772899003 109177.3480854863 -691.4602217251189  13806.90843888927 84795.87142461444 -3288.608480833754  42042.1003123136 65482.76889364541 -1784.344992951069  85917.78356508871 211210.3489857896 -1084.187284676976  26344.15959288631 140617.4121347481 -2112.437398247788  49350.86723141051 36336.78604214006 -2272.704599832591  21702.40331646254 119880.0690882354 -2466.437976166102  57313.56589490068 220733.4025395545 -2090.49117424689  28866.73893404105 218351.493928639 -3037.311471166797  64300.33793173476 48969.94193502321 -1793.328299662734  52482.25996720623 28090.02703717845 -2196.191483315934  63095.9704402233 54899.2587271606 -1627.600015239288
[...]
<PointData  Vectors="sample_prior"> 
<DataArray  type="Float64"  Name="sample_prior"  NumberOfComponents="3" format="ascii">7.8364395794095945e-02 -3.2656561842481568e-01 8.8489717055834749e-01  7.7433937883601048e-02 -6.4951068350453334e-01 6.4483357331631741e-01  -3.5312517158628426e-01 5.9161167452050478e-03 3.4698088997320203e-01  1.7699853394219014e-01 2.0054887233643584e-01 -2.2161158875771719e-01  -5.9160698722520402e-02 -3.4633448800338895e-01 -2.4888660467170012e-01  2.5331765459251449e-01 -7.7249740349286611e-02 3.5497141018352768e-01  1.1255880619058328e-02 -4.2706958361687986e-01 -5.5820466510196842e-01  2.4878243723690227e-01 -3.3548110730311465e-01 5.4923123229608339e-01  2.1774855485931238e-01 1.3501201647995117e-01 -2.9057733304126188e-02  -5.3161829089587796e-02 -1.3801068461135321e-01 -1.6549330130465867e-01  2.8396036099721583e-01 9.2652356206708239e-02 -9.2520753841069697e-02  8.5801647389865218e-02 -2.6820002860980463e-01 -1.7766927463707186e-01  -1.4091128564753289e-02 9.9192295645155790e-02 -9.2071324748649555e-02  1.4248562396273973e-01 3.1361416698370934e-02 -3.8183331911550583e-01  -1.1645898747617189e-02 -5.9879006284245709e-02 -2.3324220001774087e-02  1.5256787208438519e-01 -5.7410238617463194e-02 3.4965585136412508e-01  9.7973105412581793e-02 2.2049468654938645e-01 2.2612549627465221e-02  1.6898444027431148e-01 -5.7034973092255636e-02 2.8951027789084477e-01  1.0930510859783424e-01 -1.6355098293972850e-01 7.4750992126432103e-02  6.1805647705420241e-02 -6.8323790793748160e-02 -1.4867600364586381e-01  9.7501176560578162e-02 1.2278682244694920e-01 7.8782028392823986e-02  -1.8006858256138303e-01 -5.7916813635650620e-02 -1.3538235545772456e-01  3.3987731249814523e-02 -6.9166373200858874e-02 1.1677821670936771e-01  2.3126425385929742e-03 -1.7919519792211003e-02 -4.3449208112255763e-02  2.3868719694978419e-02 2.3817811178415239e-02 -1.5186693636106949e-01  1.9326750822261340e-01 -1.4295527094091526e-01 -1.3529133938228288e-01  1.7901170274471978e-01 -5.3142469691499432e-02 -1.1339326089705343e-01  5.1151291807771974e-03 9.6420715408030669e-02 -1.3911903916466259e-01  -1.0010255903022198e-02 -4.4917983136140746e-02 1.5325822505949438e-01  1.9839667320086984e-01 1.9726434163986481e-01 -2.9010335190524156e-01  -8.0247649197519116e-02 7.8354975447595093e-02 -8.2997578611147552e-02  9.7016065115088077e-02 7.7299887442897453e-02 -2.2255684857542790e-01  1.1288388839867868e-01 1.5690473123808529e-01 1.2401726399020391e-02  2.0791002422004157e-01 -2.0779607642433509e-01 -6.0725606790456181e-02  -2.9955969725533094e-01 1.1842417609920751e-01 2.1021913725376540e-02  -3.2317794569248054e-01 -5.5973004314537562e-02 1.0074272562579771e-01  2.4979634247118208e-02 1.6319600686581426e-01 2.0624278854744665e-01  -4.2372930102123653e-03 -1.7988722057539455e-01 1.7874965198749367e-02  4.6169276309162136e-02 -1.4689407290943338e-01 7.4376200826806224e-02  2.3557749434338894e-02 -1.0855177434220530e-01 -1.5115071194354820e-01  2.9954286378794350e-02 -1.1363579223605776e-01 -4.6173295751276829e-02  9.1642839528209494e-02 -5.2578502968857799e-02 -2.6714298879789999e-01  1.4078471082327487e-01 -1.1165591444886333e-01 5.0629358353729573e-02  -7.8931822492645520e-02 -6.9870967625575622e-03 -1.6442675204440132e-02  -2.2035503001851510e-02 -1.0581574294993912e-01 1.9841461746617642e-01  8.0951340414932141e-02 -1.1254696208162041e-01 4.8502569892447034e-01  -2.9368413051005671e-01 -2.3511243773447188e-01 -1.6511201042591703e-01  -1.5440214357524082e-01 -6.2863745340950872e-01 -2.6552794264761803e-03  -4.1318591266289095e-01 -4.5575889164363964e-01 -2.2284643056087836e-02  -5.1005005078764665e-01 -1.2776353330817217e-01 2.5174914825575867e-01  -1.5287706848081442e-01 -6.1715269133743134e-01 1.9383750492450880e-02  1.9531872846485035e-01 -2.5978049255297297e-01 -1.0846011822408937e-02  1.8781272499102150e-01 -5.4945177907825704e-01 -3.0004894811930971e-01  6.9589041487555112e-02 6.0086209708325473e-03 -2.6286585348695779e-01  6.9250431857504458e-02 7.0542575543028285e-02 1.9031192371785116e-01  1.3072541758898709e-01 1.7594854916294284e-01 2.4479242740300142e-01  -2.3808575196503437e-01 -1.9830902230011477e-01 7.6196281781512706e-02  -3.1511298294295531e-01 1.5991618442037503e-02 9.9777699702828862e-03  -1.1515344403464425e-01 1.0998042261741971e-01 -1.3451418771412185e-01  -1.2392618742544156e-01 -2.0878233943183047e-01 1.9410872837924958e-01  9.8958138509126853e-02 2.9293301107635844e-01 -1.0821750998680975e-01  6.8123049072474268e-02 2.5219816377874960e-01 2.4287353644803736e-01  6.8071256361341764e-03 2.5009764884057911e-01 2.5633698934704718e-01  -2.7173538385394508e-01 1.5346847320601137e-01 4.0612529050778973e-01  1.7039406303185717e-01 1.2840334187611735e-01 -7.2266549657444529e-02  2.3669006597738343e-01 1.4823324419976772e-01 -2.6129301753152795e-01  1.3090623733341364e-01 -8.3121610186022696e-02 7.9113193100129098e-02  1.2328468637745808e-01 7.0452752074220512e-02 3.8905470464646097e-02  -1.2060238573374206e-01 1.2624235015287411e-01 -1.0996584851055302e-01  1.5732398931115577e-01 1.3397564621024702e-01 -5.6699527448794293e-02  1.3136923244110182e-01 -2.1381779182762603e-01 4.0376609495942073e-02  4.0717976794812517e-02 -9.9464630387528438e-02 7.0310555497196905e-02  3.3821790144417180e-01 1.6970732327901858e-01 1.0594203787330150e-01  1.4669173844426936e-01 2.6676375438351352e-01 -2.8975364097032746e-01  8.5478024850287826e-02 -2.4677531852947518e-01 8.3832725341933242e-02  3.3612617097730857e-01 -9.8335457187089109e-02 2.6159864827511087e-01  -1.0677895119562276e-02 -2.5131665854489948e-01 9.6064835450123023e-02  -3.1479578328907090e-02 -4.7154773991115417e-01 -6.4642139337534266e-02  1.4069023628579394e-01 -2.0695825548373464e-01 4.4695996273155607e-04  -1.3589468381814124e-01 -1.5930756625930440e-01 1.5820523391271973e-01  3.2845934641641661e-01 5.1419843489167651e-02 3.3951007597243460e-01  -2.3368855844886804e-01 1.7471186227605295e-01 -1.2119076304751232e-01  -9.4722557875474692e-02 6.0050722175623361e-01 -1.0561552449817393e-02  -2.4242815570396997e-01 -4.8138275536347020e-03 3.0995811373054916e-01  -2.6214506097032553e-01 8.8290469431989579e-02 9.1320508300567677e-02  3.6898122750183192e-02 -1.2198089222174988e-01 -4.1997353514601582e-01  1.7560357181445924e-01 4.8414760300027504e-01 1.0716634142128829e-02  -8.9950535162227369e-02 2.7696308785603169e-01 1.1156180692852889e-01  2.2320028113793311e-01 2.2700376768002850e-01 -1.0456140121183441e-01  -1.6049355771786303e-01 -6.4637331635981538e-02 9.0399237259700699e-02  1.2062018068516561e-01 2.6551656890944308e-01 -4.5163316080799903e-02  4.9487947173525872e-02 5.3066770015568376e-01 -1.6432262163128278e-02  5.6596628762743142e-02 5.2301772430802619e-02 2.4528011083574797e-01  -1.8055287657872268e-01 -1.3656463560972507e-01 -3.0116691523846084e-01  -3.3146375920467118e-02 -3.2824023729108559e-01 -2.4279429133858521e-01  6.5893638372130896e-03 -2.3887222912445807e-01 -1.0254162717322607e-01  3.2875426404911884e-01 -5.4183904593622678e-01 2.5799649169390948e-01  -1.2194785406929036e-01 5.7036250325682469e-01 -2.8880874046583760e-01  5.3159745736728747e-01 4.1354017440669733e-01 1.8424710411085660e-01  6.2051965595326031e-01 -1.9944366437595171e-01 8.2251725253209196e-01  6.9775782537439057e-01 -2.4762134346169495e-01 1.0136822175535264e-01  1.1461422094082670e-01 2.4327520273921888e-01 5.6104962513818279e-01  -2.9122286932961661e-01 2.3135846307277494e-01 5.4394072911709423e-01  -3.5604100763877489e-01 2.6342775058171974e-01 4.5420735371658791e-02  -3.8531421351991968e-01 3.2290289966439339e-01 -4.1459912272402888e-01  -8.7749453307301273e-02 3.7079750237674869e-01 -2.3868097083418988e-01  5.4943172437188037e-01 5.7444853198645518e-01 -5.3357899159287361e-02  6.5868870835753168e-01 -4.5115446712839974e-01 -7.0657540046590595e-01  -3.8426903573420068e-01 2.4363810693634930e-01 -2.6350142471856214e-01  2.6047293924151723e-02 1.0738546055539411e+00 -2.2321180283313199e-01  -4.3709683377822939e-01 -9.0422699421845845e-02 1.2971843716732049e-02  7.4996202789419722e-02 -4.1565667870404022e-01 -3.9755401766918869e-01  8.6323744062476407e-02 5.9291418442139199e-01 1.7657139941108585e-01  -2.4533771508960964e-01 9.6137273612882657e-01 -2.3043584433853145e-01  -2.9097202388209892e-01 7.2838653086955674e-01 -5.9861273167538087e-01  1.4114161532988315e-01 6.5554172478328532e-01 -9.8525987306401597e-01  4.8934140295678258e-01 -2.9406817535049357e-01 -3.9561679585192433e-01  5.8212446490364655e-01 -1.5737453605615276e-01 2.0522589702500610e-01  2.9359715314945173e-01 -1.4099273500459661e-01 -3.3992044565046475e-01  1.7244938324008033e-01 -2.5443067030913202e-01 -3.2208317619344334e-01  2.0495633444921807e-01 -4.3326370495829386e-01 -1.2373780484442582e-02  -2.2271327184543322e-02 3.9494630386925966e-02 -1.4981494735528317e-01  6.5925800074825291e-02 1.8750347418721944e-01 -5.0353025655857524e-02  8.3662391953737043e-03 -2.1780321328748155e-02 6.1405375289720808e-02  2.7084530610644803e-03 -2.3391506487329911e-01 2.4656689062403578e-01  1.1719168790528231e-01 -4.9775390142032680e-02 1.4692593460341460e-01  -1.0688777174180232e-01 8.8206988141536366e-02 -3.8217422770920342e-02  -1.3316750747229855e-01 1.3372127416750881e-01 -1.9836384369390689e-01  -1.5911221444441373e-01 2.9669095417184826e-01 1.0089171475384183e-01  1.0006592341014010e-01 1.1752104557793946e-01 -5.6627386013765990e-02  7.3899436181396327e-02 2.0136997706322872e-02 2.6760707387913635e-01  -1.3549823176505552e-01 -7.4185979068533109e-02 -9.7116160612653657e-02  -1.6468551103692747e-01 6.6260000499255484e-02 -1.5262288559980702e-01  -3.1956104520913525e-01 2.1216148677455288e-01 1.6077721012837409e-01  -1.3427477517812503e-01 1.4539275363868165e-01 2.2234748243231520e-01  -4.2596805703889032e-02 -9.2685781533068501e-02 4.7281698374562670e-02  -6.4002340138211614e-02 1.5065494134709867e-03 -1.9254536627403462e-01  -5.0100461939175021e-02 -9.6899032129520682e-02 -3.8360652587370592e-02  -4.6295707446161176e-02 -1.7948011148152371e-01 1.1615165759617806e-01  2.0406423649901451e-01 -2.2664453266568491e-02 3.2851016286679985e-01  1.7432320198720850e-02 1.0549763874179258e-01 1.7889791360124557e-01  1.5162202453676768e-01 8.2833151865349827e-02 -6.4815222828133248e-02  3.1520341326398577e-01 2.3147654511641486e-01 -8.3388588003664582e-02  3.8236240796382798e-01 1.0647420871436840e-01 1.0041036549971151e-01  6.4747932341539874e-02 -4.0065694037421212e-01 7.5656063193199660e-02  5.5835331607974360e-02 -1.7616045642623104e-01 -8.6935197833627104e-02  1.1298780833750903e-01 5.8188687353314283e-02 7.5477516733579081e-02  2.0169978995627752e-01 8.5458134905581143e-02 1.7854439157427524e-01  1.2405715314966646e-01 -7.4499194053487441e-02 1.5933104295253478e-01  1.7031792938909998e-01 -1.1219094355121451e-01 -1.6104346745176859e-01  2.4166461952855989e-02 -7.0590057959354385e-02 2.1001151849562300e-01  9.3971108475524587e-04 -1.8655814720144087e-01 8.6368799296535126e-02  -7.1841667930011746e-02 -2.5362508520469430e-02 1.1705516484454484e-01  -1.0108363222355231e-01 -2.3445196991140066e-01 -5.6128408620878006e-02  5.3289356648258974e-03 1.1286918034915541e-01 -3.2004628378818767e-01  2.5857286359784909e-01 8.7196223641261478e-02 -1.6439413920265805e-01  -4.7900277938274144e-02 -2.2250618710861073e-01 -3.8227017394232003e-02  -5.9630016704791344e-01 -3.6158495754923298e-01 2.1468293796416696e-01  1.2179428587163481e-01 -1.6437040807096184e-01 1.3466165176411168e-01  1.8479951900982050e-01 -1.0603068874722264e-01 3.7289011721750615e-01  -3.4548762673788216e-02 1.5550321536366571e-01 -1.7546747301728036e-02  -1.8521572107334039e-01 2.1909220019335408e-02 1.3986903409314325e-01  -1.2886140064171425e-01 -1.4741490873228233e-01 -8.2619577076863251e-02  1.6495192294141939e-01 4.6669666240500250e-02 2.8900290581928983e-01  -4.0290621665806041e-02 -5.1675854650385100e-02 -2.3686264414189095e-01  9.6698288809384733e-02 1.3490125065197203e-01 -1.7719237558342493e-01  2.8031317017879593e-03 6.5794766399046051e-02 -2.7235377247602716e-01  -1.1181784709903969e-01 3.0871948935448007e-02 -1.8750621509660354e-02  -2.4312114086850684e-01 -5.9149208809086563e-02 -1.1443352826586319e-01  2.0815717088526103e-01 1.5713840838088269e-01 9.0648985854461747e-04  -4.8024416510254797e-02 3.1202179623783566e-01 -1.7996291996640248e-01  -2.6434203993095534e-01 3.4886858377916219e-02 1.7760292125130933e-01  2.4902675885290662e-01 -2.1399836150487239e-01 8.8351461170312240e-01  3.2015865598842258e-01 -6.2335737280617393e-02 1.0066430625873975e-01  1.4775952511218562e-01 -3.3115002236343456e-02 -9.3136155532375364e-02  3.7457068940456734e-01 -1.8035688081319043e-01 -6.6375289528457226e-02  -1.4152991734928930e-01 1.7152993435960306e-01 -3.0753893217010525e-02  1.2363984329969066e-02 2.4425610012625867e-01 -1.7769441042992420e-01  -7.6629958816924235e-02 1.6092897945645866e-02 -1.3681504034366454e-01  3.1570999289390034e-01 1.4069952097442512e-01 4.1710069201800683e-02  8.5834799027238742e-02 6.9982412577748010e-02 2.2082352922635307e-01  3.2240859095039182e-02 1.3676691076283304e-01 1.5395482942688357e-01  1.3759625835089556e-01 -3.7778085224997099e-01 -3.5906342978961014e-01  1.0985922725863607e-01 -1.1907364665276145e-01 -4.6317507331311510e-04  -1.5103092891742811e-01 2.2490710326024574e-01 1.0781325724325999e-01  8.5587458068073524e-02 -1.0068087023641098e-01 -3.3615734552068477e-01  -2.8531841275997658e-02 2.0067551602774797e-01 -2.0620559935042015e-01  -1.6229276512526497e-01 3.3134711580064445e-02 -1.0385188939744930e-01  -2.2770150662411573e-01 -2.5106058123212016e-01 -2.2202702953860623e-01  -1.2000223994455067e-01 1.1225935549514046e-01 3.5389654945934162e-01  1.9297051402334387e-02 1.9086926925922462e-01 -1.4131055695153941e-01  -2.6718082799845821e-01 2.3548767707413867e-01 -5.5656146685764733e-02  -1.9472608233270036e-01 -1.8519064457612733e-01 -3.4560597428932555e-01  -5.9890892329981356e-02 1.4613581976565707e-01 -2.9034988729827027e-01  -1.9136422787110602e-01 5.1700777410090826e-02 3.7192073385943758e-01  -1.4914915444327520e-01 2.6860468068627097e-01 2.6847227101527393e-01  -7.1226073718088909e-02 6.1245415423345120e-02 1.3235469763255681e-02  6.3534701751031583e-02 7.0817258117305604e-02 1.6076162445410658e-01  -1.0406352427977168e-01 -8.6824829020436450e-02 -3.9250662078234133e-02  1.6431380590046288e-01 1.3491562713434160e-01 3.0989448868991620e-01  9.1446449473800734e-02 -3.1837258549817497e-02 1.2778714607123223e-01  -4.2050332007318802e-01 -1.7368179287159619e-01 9.5627352664510140e-02  1.6250559538449771e-01 -4.7655642633236200e-01 3.1778639546197286e-02  -1.0315025515533825e-01 -3.1485095395326923e-01 -2.0433835372933952e-02  2.3848640971019852e-01 1.2061714333904805e-01 -1.0496243633961544e-01  2.9667470552276232e-01 8.0126220947818128e-02 -3.0366202567034523e-01  -2.3032257199727971e-01 1.2024435102605792e-01 1.6507379255681606e-01  -5.9668151651705759e-01 9.9440155502468902e-02 -9.3573874222231110e-02  -7.6366739264708008e-02 -5.1471716485758948e-02 9.6724154267462600e-02  2.3153961519774421e-01 -5.4847522799707532e-02 3.7178444501771712e-01  2.8584167445755876e-01 -1.7301971610489503e-01 1.7265072636833429e-02  2.1690121804699014e-01 -6.5868599982140508e-02 -2.2115503963742902e-01  1.2715466968626632e-01 -6.7508484105895855e-02 -2.5869998441141112e-01  2.2414856974868472e-01 -4.7773513294971669e-02 3.1449593388710770e-02  -1.2432910073493955e-01 1.2708183374236762e-01 1.2161400484142932e-02  3.7270927138770599e-03 9.2176548696234886e-02 3.4901594866965487e-02  1.8877781917120012e-02 9.9449252346387237e-03 2.1301303108240907e-01  1.0484202488720909e-01 1.0226045311420545e-01 -1.9387908878132099e-01  2.3093753480546497e-02 2.6327017331414796e-02 2.4535738944892242e-02  -6.5503389736617595e-02 -7.3182017817932890e-02 2.1290753310081703e-01  5.9887024135471700e-02 -1.4163490924234759e-01 7.9363219661082049e-02  1.1860854045115593e-01 -1.1834991483675121e-01 -8.0249677644403765e-03  3.1209471788258468e-02 -1.8431866996783161e-01 -2.7999759466863342e-02  2.2723404272949423e-02 -4.0190479086228470e-02 1.3857068650657980e-01  2.4467470560944507e-01 9.8670495894803284e-02 3.6933306435579194e-01  1.7068183971187662e-01 2.5615770561699858e-01 1.0637235912583753e-01  1.7422140701071889e-01 1.5937158631696607e-01 -1.4418719909871025e-01  1.0309145739750587e-01 -1.9583733231159808e-01 7.2305934449686554e-02  -2.6894669571470988e-02 3.2121993887934373e-02 -4.6681476523937081e-02  1.5313215129840094e-01 1.1002059659252979e-01 -1.5838553779993536e-01  1.3828869969429630e-01 -2.0633438928806775e-02 -1.9161979521331394e-02  6.9011452759869807e-02 4.3736784884270227e-02 -4.6681592031253480e-02  -1.3544619922977485e-02 -1.0884505514706705e-01 9.9226975949710500e-02  -3.8768090949735484e-01 2.3052767789199846e-02 -1.6313713037135075e-01  2.9691535564198113e-01 -4.9246013063020277e-01 3.0378933189834911e-01  6.8282828559116979e-02 -2.2225477497321069e-01 -8.7807625625535887e-02  1.1753447333720315e-01 -3.1528750265944150e-01 -7.7052970198343479e-02  2.4878434959347009e-02 -1.5715240259472321e-01 -1.7442504131320671e-01  -1.6182580183179607e-01 3.4213588589719546e-01 -5.4408115640681889e-02  1.2786270999242610e-01 2.2331280750712232e-01 2.9657162277463034e-01  -1.5661430618585151e-01 -8.3516925803616041e-02 2.1501548231148249e-01  1.4941375829460316e-01 5.0470655235236809e-03 -2.6833313015454732e-02  1.3915094564617264e-01 -2.9418075958309142e-01 -1.2113594780981812e-01  -2.5657719372662335e-01 -2.0783141275952305e-01 3.5231155449254242e-01  -2.7269159716805380e-01 1.8704020731595672e-01 -1.3741873255564008e-01  -2.4653502042218528e-01 5.4395987910745403e-02 -2.7546020128051560e-02  -3.0025015381642817e-01 3.9248471376943900e-02 -4.0818036708490396e-01  -5.1904037097948597e-04 1.3271558016439391e-01 3.5217895895601523e-02  -1.2115188739030452e-01 -6.0345899063611130e-01 3.0856746333322044e-02  -4.7199197466038945e-01 -4.6309509138537064e-01 -1.4694795242712133e-02  -3.6860499848380385e-01 -2.9453326140109803e-01 1.5994457039548293e-01  -3.2940559106838185e-01 -5.0590396279730598e-01 2.0954277271388488e-01  -1.7009620628288927e-01 -3.1003768863052178e-01 -2.1235148853811342e-01  -2.1997201092639990e-02 -1.5631448537419157e-01 -7.1628404544619120e-02  -3.3941342509241990e-01 2.0104528988356568e-01 8.2193876364052301e-02  1.5029798579150315e-02 -1.3209739769064602e-01 3.6804131100015353e-01  9.3001339742826136e-02 1.1035790051668330e-01 4.0591513934730684e-02  -2.0799869918443115e-01 2.4433974968222399e-01 1.2367884933728912e-01  -6.9752862231993146e-02 -5.8792641119596839e-02 -3.1132188989833809e-01  -3.9434601293270984e-02 7.1802983202571072e-02 -5.6070252902892276e-02  6.0930731226494450e-02 -6.5564891062244515e-02 2.6387813186860293e-01  7.6367662471377398e-02 -4.1459166557482802e-02 4.9313972099533733e-02  4.6860993991149541e-02 -3.9098008237479753e-01 5.7466135067970728e-02  -4.0312403532191848e-01 -1.8375471147909545e-01 3.4389151022173337e-01  -5.9943427128962209e-02 3.2955140621829221e-01 3.9131543107082632e-02  -1.0928419493670839e-01 1.4795824728730894e-01 1.8934574928939932e-01  9.1271055989090188e-02 1.5102950277977578e-01 1.4620407458723139e-01  -1.0067078040596719e-01 1.1352365217380420e-01 -1.7819098101780232e-02  3.1085755513861561e-02 -2.1351642475539043e-01 4.1412816010738446e-01  6.3102537214810206e-01 -1.6406628348635355e-01 2.0433114406565073e-01  2.0016297511118566e-01 -2.9860957355301598e-02 -1.6927619740158728e-01  2.4696050270072201e-01 -2.1200044013109112e-01 2.9693336625265312e-02  -1.9633299128236703e-01 -7.3351432093726979e-02 3.6416088982760574e-02  9.0330979978247739e-02 5.8320937925761075e-02 1.0942770051236292e-01  -3.5540161294459038e-01 1.1534757500726948e-01 1.3113424458332815e-01  -2.4182731489545839e-01 2.2644823093271485e-01 3.3633754785279113e-01  -1.1590019613000729e-01 -2.3813338883129764e-01 1.9892919972782017e-01  1.0049731745148020e-01 -1.5160636965880836e-01 7.7905605113698492e-04  -2.1952690808239361e-0