<?xml version="1.0"?>
<VTKFile type="UnstructuredGrid"  version="0.1"  >
<UnstructuredGrid>
<Piece  NumberOfPoints="8385" NumberOfCells="35823">
<Points>
<DataArray  type="Float64"  NumberOfComponents="3"  format="ascii">0 0 -4000  0 250000 -4000  250000 0 0  250000 250000 0  130000 0 -60000  130000 250000 -60000  250000 0 -60000  250000 250000 -60000  72147.7 166878.6 0  86225.3 177671.7 0  72082.2 161278 0  80407.60000000001 166683.7 0  66765.10000000001 151053.8 0  70533.5 147695.4 0  88829.10000000001 164696.8 0  62768.1 132621.8 0  114956.1 180662.6 0  63924.4 130258.4 0  156213.5 216508.7 0  94617.8 155302.3 0  144307.5 195630.5 0  87231.39999999999 141931.8 0  68256.5 121278.3 0  69835.5 115711.4 0  95984.2 132464.1 0  116918.1 151520.9 0  96139.8 122416.1 0  78677.39999999999 102260.8 0  93451.5 115391.6 0  111847.4 131476.2 0  107207 116320.3 0  142564.4 147908.4 0  121370.1 121838.1 0  82154.39999999999 83011.2 0  84152.3 84289.39999999999 0  99259 96094.39999999999 0  106151.5 94923 0  159682.5 139591.9 0  136050.5 110604.8 0  111591.5 84279.10000000001 0  126001.6 88238.2 0  105758.7 68122.8 0  151826.4 109709.5 0  197157.2 140577 0  129859.4 33265.4 0  140000 0 0  136000 250000 0  4857.142857142332 250000 -3857.142857142872  9714.285714284615 250000 -3714.285714285747  14571.42857143168 250000 -3571.42857142848  19428.57142857481 250000 -3428.571428571329  24285.71428571539 250000 -3285.714285714253  29142.85714285597 250000 -3142.857142857177  33999.99999999657 250000 -3000.000000000101  38857.14285713715 250000 -2857.142857143025  43714.28571427773 250000 -2714.285714285949  48571.42857141832 250000 -2571.428571428873  53428.57142855891 250000 -2428.571428571797  58285.71428569948 250000 -2285.714285714721  63142.85714284007 250000 -2142.857142857645  67999.99999998066 250000 -2000.000000000569  72857.14285712125 250000 -1857.142857143493  77714.28571426184 250000 -1714.285714286416  82571.42857140242 250000 -1571.428571429341  87428.571428543 250000 -1428.571428572265  92285.71428568359 250000 -1285.714285715189  97142.85714282417 250000 -1142.857142858113  101999.9999999648 250000 -1000.000000001036  106857.1428571053 250000 -857.1428571439606  111714.2857142459 250000 -714.2857142868847  116571.4285713865 250000 -571.4285714298085  121428.5714285271 250000 -428.5714285727327  126285.7142856677 250000 -285.7142857156564  131142.8571428107 250000 -142.8571428585083  250000 240000.0000000016 0  250000 230000.0000000032 0  250000 220000.0000000048 0  250000 210000.0000000064 0  250000 200000.0000000079 0  250000 190000.0000000095 0  250000 180000.0000000111 0  250000 170000.0000000127 0  250000 160000.0000000143 0  250000 150000.0000000159 0  250000 140000.0000000175 0  250000 130000.0000000191 0  250000 119999.9999999916 0  250000 109999.9999999825 0  250000 99999.99999998408 0  250000 89999.99999998568 0  250000 79999.99999998725 0  250000 69999.99999998885 0  250000 59999.99999999045 0  250000 49999.99999999205 0  250000 39999.99999999366 0  250000 29999.99999999526 0  250000 19999.9999999968 0  250000 9999.999999998399 0  135172.4137931034 0 -137.9310344827583  130344.8275862069 0 -275.8620689655166  125517.2413793104 0 -413.7931034482749  120689.6551724138 0 -551.7241379310333  115862.0689655173 0 -689.6551724137912  111034.4827586208 0 -827.5862068965494  106206.8965517242 0 -965.5172413793075  101379.3103448277 0 -1103.448275862066  96551.72413793117 0 -1241.379310344824  91724.13793103464 0 -1379.310344827582  86896.5517241381 0 -1517.24137931034  82068.96551724157 0 -1655.172413793098  77241.37931034504 0 -1793.103448275856  72413.79310344851 0 -1931.034482758614  67586.20689655196 0 -2068.965517241373  62758.62068965542 0 -2206.896551724131  57931.03448275886 0 -2344.827586206889  53103.44827586231 0 -2482.758620689649  48275.86206896573 0 -2620.689655172408  43448.27586206916 0 -2758.620689655167  38620.68965517257 0 -2896.551724137927  33793.103448276 0 -3034.482758620686  28965.51724137944 0 -3172.413793103445  24137.93103448287 0 -3310.344827586204  19310.34482758629 0 -3448.275862068963  14482.7586206897 0 -3586.206896551723  9655.172413793145 0 -3724.137931034482  4827.586206896551 0 -3862.068965517241  0 4999.999999999225 -4000  0 9999.999999998096 -4000  0 14999.99999999756 -4000  0 19999.99999999726 -4000  0 24999.99999999649 -4000  0 29999.99999999545 -4000  0 34999.99999999351 -4000  0 39999.99999999275 -4000  0 44999.99999999197 -4000  0 49999.9999999912 -4000  0 54999.99999999042 -4000  0 59999.99999998965 -4000  0 64999.99999998888 -4000  0 69999.99999998808 -4000  0 74999.99999998731 -4000  0 79999.99999998655 -4000  0 84999.99999998577 -4000  0 89999.99999998501 -4000  0 94999.99999998423 -4000  0 99999.99999998347 -4000  0 104999.9999999827 -4000  0 109999.9999999819 -4000  0 114999.9999999811 -4000  0 119999.9999999804 -4000  0 124999.9999999824 -4000  0 130000.0000000079 -4000  0 135000.0000000178 -4000  0 140000.000000017 -4000  0 145000.0000000163 -4000  0 150000.0000000155 -4000  0 155000.0000000147 -4000  0 160000.000000014 -4000  0 165000.0000000132 -4000  0 170000.0000000124 -4000  0 175000.0000000116 -4000  0 180000.0000000109 -4000  0 185000.0000000101 -4000  0 190000.0000000093 -4000  0 195000.0000000085 -4000  0 200000.0000000078 -4000  0 205000.000000007 -4000  0 210000.0000000062 -4000  0 215000.0000000054 -4000  0 220000.0000000047 -4000  0 225000.0000000039 -4000  0 230000.0000000031 -4000  0 235000.0000000024 -4000  0 240000.0000000016 -4000  0 245000.0000000008 -4000  138499.992698711 4754.026372277331 0  137093.2670052012 9536.639699345635 0  135699.8836753657 14323.17697982435 0  134242.0997113028 19090.39455387465 0  132631.3534429766 23807.82160930602 0  130751.3712685147 28423.75111080412 0  128562.4170940472 32902.44582968431 0  126285.2564027428 37336.77035579942 0  123661.3951409534 41572.18842203188 0  120466.1639654971 45392.17900234455 0  116742.7600150611 48701.57094013265 0  112599.2779558244 51459.89351581372 0  108052.7620132346 53498.30186482816 0  103362.6013075687 55186.61489180412 0  98626.9445524631 56744.1075396087 0  93895.10465571457 58313.07723732995 0  89213.61083253716 60025.29196098565 0  84659.98679375931 62049.90630856762 0  80423.72342827682 64664.16689082998 0  77079.46520597988 68320.91799726382 0  75401.03926413733 72984.18687963787 0  75132.31546441223 77953.39118957664 0  75517.79269400188 82922.72841733029 0  75994.12798690467 87884.97931497527 0  76141.03644053877 92865.72190814259 0  75577.6917399208 97812.27627089612 0  74056.71099135675 102551.9930892217 0  71898.80264107142 107043.8044784894 0  69421.09707510214 111369.0872951042 0  66791.23439747586 115604.1050970619 0  64120.91357323291 119813.8417572768 0  61505.46198361652 124057.7414488965 0  59050.55973913459 128395.9995763311 0  56903.24970482702 132893.1998504455 0  55303.81367464051 137609.8368688517 0  54543.69409163466 142530.9149478115 0  54488.96440186739 147512.6695308264 0  54974.77359561732 152472.3067464133 0  55867.62888085351 157375.8602543657 0  57059.2217642535 162216.0105874235 0  58457.1304431001 167000.9860755429 0  59967.68958253603 171751.8163324134 0  61481.85702780542 176501.4740946017 0  63249.74457712872 181161.0445509208 0  65477.30866714627 185617.8308927955 0  68245.7959420751 189759.2433519008 0  71520.4315061924 193514.3385976385 0  75350.61144867241 196685.7937683813 0  79773.17101542671 198974.8606729538 0  84378.90699153654 200882.4207250944 0  88911.60265377768 202954.8336515224 0  93435.45084417483 205047.09581866 0  98032.2666486997 206976.2210864664 0  102616.0836544937 208935.8107130805 0  107113.0495121478 211085.573258506 0  111372.3937621359 213667.5068784722 0  114843.2448044628 217203.7046179156 0  116698.1230832934 221806.0799432901 0  117775.060870244 226673.1998860401 0  119571.7838315423 231305.7208116875 0  122475.2761019627 235353.0279900247 0  125742.3595464658 239117.4724032586 0  129161.5121633181 242745.2442007751 0  132614.792595325 246340.7012191151 0  250000 250000 -8921.902778285936  250000 250000 -19170.47581238532  250000 250000 -30942.99472097832  250000 250000 -44466.06850109496  250000 230769.2307692338 -60000  250000 211538.4615384677 -60000  250000 192307.6923077015 -60000  250000 173076.9230769353 -60000  250000 153846.1538461692 -60000  250000 134615.384615403 -60000  250000 115384.615384597 -60000  250000 96153.84615383085 -60000  250000 76923.07692306468 -60000  250000 57692.30769229849 -60000  250000 38461.53846153233 -60000  250000 19230.76923076616 -60000  250000 0 -44466.06850109696  250000 0 -30942.99472111472  250000 0 -19170.47581244904  250000 0 -8921.90277830635  232227.1661023966 0 -60000  216296.9260375522 0 -60000  202018.2515568125 0 -60000  189219.9167941597 0 -60000  177748.4479527209 0 -60000  167466.2824799582 0 -60000  158250.1197834204 0 -60000  149989.4414908582 0 -60000  142585.1882295191 0 -60000  135948.5681760333 0 -60000  232227.1661023966 250000 -60000  216296.9260375522 250000 -60000  202018.2515568125 250000 -60000  189219.9167941597 250000 -60000  177748.4479527209 250000 -60000  167466.2824799582 250000 -60000  158250.1197834204 250000 -60000  149989.4414908582 250000 -60000  142585.1882295191 250000 -60000  135948.5681760333 250000 -60000  130000 244047.61904762 -60000  130000 238095.23809524 -60000  130000 232142.85714286 -60000  130000 226190.47619048 -60000  130000 220238.0952381 -60000  130000 214285.7142857199 -60000  130000 208333.3333333399 -60000  130000 202380.9523809599 -60000  130000 196428.5714285799 -60000  130000 190476.1904761999 -60000  130000 184523.8095238199 -60000  130000 178571.4285714399 -60000  130000 172619.0476190599 -60000  130000 166666.6666666799 -60000  130000 160714.2857142999 -60000  130000 154761.9047619199 -60000  130000 148809.5238095399 -60000  130000 142857.1428571599 -60000  130000 136904.7619047798 -60000  130000 130952.3809523998 -60000  130000 125000.0000000169 -60000  130000 119047.6190476054 -60000  130000 113095.2380
[...]
<PointData  Vectors="sample_prior"> 
<DataArray  type="Float64"  Name="sample_prior"  NumberOfComponents="3" format="ascii">-6.7606620500919193e-04 -1.3843537011697054e-02 -6.6719458414933311e-03  4.2677154356622433e-03 -4.5035188845209771e-03 6.4819652426202608e-03  3.1010994711464222e-03 -6.5952001297169059e-05 -2.0679077537509604e-03  1.8848860841406336e-03 -1.2981013373189584e-03 -2.8910818678130877e-03  -6.5185841561778862e-04 4.0126537878007153e-04 -3.7477539401994170e-03  -4.1219023586839282e-03 1.1321327459415799e-03 2.7163424412738121e-04  5.7699922772094217e-04 1.0837378628814283e-04 -1.5484719750831239e-03  -1.7494191810765701e-03 -5.1726425784010734e-03 5.3026686453902256e-04  -1.8498387011379150e-03 7.0312884412418897e-04 1.5714157980273513e-03  -6.4931820987992721e-04 8.3709858259920530e-04 1.2594610699303865e-03  -2.2230985723649256e-03 5.0314888364564041e-04 1.2163653542453402e-03  -1.2558928000929207e-03 1.2647546251649186e-03 1.1289058123887883e-03  -2.4718141838134255e-03 5.8459383592996035e-04 1.6492294197235676e-05  -2.4232001919844929e-03 5.0669888276099839e-04 -1.0997133450920462e-04  -1.3798393668579794e-03 1.2952218600386465e-03 9.7239758872572275e-04  -2.8789121066417449e-03 2.4377316817059461e-04 -1.1183855612902993e-03  -1.3991658407201298e-03 1.7770216134542858e-03 1.1769500467075146e-03  -3.0829941147547946e-03 4.5085570609375698e-04 -1.4806493811663926e-03  -6.8672603449727876e-04 3.3988953818130661e-04 1.3441626003976074e-03  -2.3956465552980180e-03 6.3829511933745310e-04 1.0253503008527448e-03  -2.6762176409015183e-04 1.5464642798514951e-03 1.8422318659891024e-03  -3.4447824288696000e-03 7.8829835844697012e-04 -4.4178268385516417e-04  -4.6437012691110668e-03 5.1186566357348503e-04 -2.6667128426216963e-03  -4.9994924836339570e-03 1.7499696915956916e-04 -2.8612891600886432e-03  -3.8911790725263528e-03 9.1822759343249377e-04 6.3241877784831889e-04  -3.4052060246255855e-03 1.6365315251004732e-03 -4.7205189386056995e-04  -4.4056041215067739e-03 1.2281294363903068e-03 -2.8322973828756451e-04  -4.8769770290879285e-03 -2.5673473718999291e-04 -1.3739099078316698e-03  -4.9360017349645707e-03 1.5170335356888361e-03 -5.7730234183700068e-04  -3.8711377845484399e-03 1.5171172495384451e-03 -4.7390588781143195e-04  -4.0872890145278147e-03 2.0050716665226207e-03 -8.2864063230180093e-04  -2.6008227203457878e-03 1.7248300852868350e-03 -1.0585105592442003e-03  -3.6347308787077230e-03 1.8547328184880510e-03 -2.0333685208207987e-04  -6.2395297074178966e-03 -1.1439735534800885e-03 -1.8852647562521538e-03  -5.9525880929212696e-03 -7.8884350528717940e-04 -1.8793584344142284e-03  -5.3685041649073019e-03 3.0782665515326544e-04 -1.4654717344241390e-03  -4.7250396308452262e-03 8.7076531807246400e-04 -1.9101909367907847e-03  -2.1818143906425442e-03 1.1035571233870135e-03 -1.8621345429880448e-03  -3.0467342386566593e-03 1.1293301290533915e-03 -1.1241565622273756e-03  -3.7583029166434025e-03 -7.1477420871442766e-05 -2.7732233034312498e-03  -3.0867729568319416e-03 -2.8874062466860423e-04 -2.9971658496682485e-03  -4.5131567453080080e-03 -8.1933872122197046e-04 -3.5326370008507781e-03  -2.3759372356577982e-03 1.4044179389962280e-03 -1.2562376789972021e-03  -1.7483966420748780e-03 -1.5556428138981330e-03 -2.2760174771193574e-03  -3.0156881092586719e-03 -1.4471523548276072e-04 -2.3089547016604617e-03  1.1029931567838325e-03 1.4452259067223683e-03 -2.1428702428691491e-03  7.5621737773454471e-05 7.5507052777139619e-04 1.5696773354316317e-03  4.8325635550516919e-03 -5.0479728875467943e-03 5.0844269195139385e-03  4.5513714761873632e-03 -4.8827157625319804e-03 4.7799459359543234e-03  4.4026440353745642e-03 -4.8069360205154387e-03 5.1347558142398591e-03  4.9471864521141206e-03 -3.0703077263775158e-03 6.6876353841945806e-03  5.4244812794151821e-03 -1.2262006295098366e-03 7.4758019102449782e-03  5.5181092437781368e-03 9.0510553504055810e-04 7.3771567510601804e-03  5.2561854350420649e-03 7.1868383286337334e-04 7.2231289777686739e-03  4.2103041615747855e-03 2.6654835714409541e-04 6.5546759361851826e-03  3.9327560177717458e-03 2.0601133349239343e-05 5.9966803020032955e-03  3.8908645433570542e-03 -9.2453266760339156e-04 5.0427877776800028e-03  3.0824562992180712e-03 -7.1302071460199853e-04 5.3923723101526712e-03  2.9837788146581516e-03 -1.0346180678602664e-03 4.9609950310342335e-03  2.1592938989584099e-03 -2.4657543845191016e-05 3.9867372884743396e-03  1.2719451953572046e-03 1.2404485842337131e-04 3.4309435915362706e-03  3.5583756874390453e-04 8.0910093535233388e-04 3.3064664155788431e-03  5.3449668290597740e-04 1.5129121302402405e-04 3.9778055072769705e-03  7.4266079586202927e-05 -3.2401580354890285e-04 3.3951906665545552e-03  1.3952793199624089e-04 -9.1538649261516363e-04 3.5432902807021509e-03  2.3634718902785989e-05 -1.2195033293386475e-03 4.0819168009885269e-03  6.1288042401313255e-05 -1.2910519981106431e-03 3.6190774018106942e-03  -1.6395186584319279e-04 -1.2182498258405383e-03 3.1352815387169254e-03  -1.2934459008386468e-03 -1.6224247457989501e-03 2.3618620380607379e-03  -1.7933740193383336e-03 -1.8617677982074123e-03 2.0214918020174839e-03  -2.6324867126691826e-03 -1.8650640092868925e-03 1.7916170450308405e-03  -3.2538390303417449e-03 -1.3081300145598642e-03 1.5378882931873002e-03  -2.0735605066985294e-03 -6.9253394445403880e-04 2.3857563380667622e-03  -4.1399806145155961e-04 3.6076897747979727e-04 1.5712642334723853e-03  1.4680863078021188e-03 -1.7744308920819754e-03 -1.2681251371099665e-03  6.5189135451755175e-04 -3.8497845004958650e-03 -8.5729106670412111e-04  -1.6997602917982068e-04 -4.6415688600309410e-03 -1.1639846098676976e-03  5.9085361098759755e-04 -4.6365066329643540e-03 -1.3249594691955976e-03  -3.5525341672777304e-04 -3.1746286408536905e-03 -1.9378862071329434e-03  -8.7089634486616993e-04 -2.5616847836919996e-03 -2.3229637116478565e-03  1.2053413274000962e-06 -6.7825965765245697e-04 -1.3899366682705123e-03  -1.1190746305146770e-03 -8.4652399390008903e-04 -1.5856204783864217e-03  -1.2685614827882778e-03 -1.2020513630539957e-03 -2.4217729288248443e-03  -2.2643910814301232e-03 -1.2678959232950123e-03 -3.2452121643393251e-03  -2.5964284237974442e-03 -6.3991667382625600e-04 -2.9290286667623001e-03  -2.8958870427171078e-03 -1.7984493481692245e-03 -2.2462082944940853e-03  -2.3032489870973205e-03 -2.1730216098211894e-03 -2.2554201744114594e-03  -1.4769584099147601e-03 -1.0976496624402834e-03 -2.2764341278329234e-03  -1.0020072953337781e-03 -3.0399226138759516e-04 -2.5082662698040683e-03  -1.1948294174982936e-03 8.5375252224662772e-04 -1.7706327451753943e-03  -6.1930692920356242e-04 7.0223332886663067e-04 -1.3350452017041039e-03  1.5223118509946320e-04 -7.7573983087063890e-04 -2.0373853016452570e-03  9.1358792043451094e-04 -1.9506835112061432e-05 -2.7908597473873631e-03  1.0277122914210169e-03 1.1107696368440902e-04 -1.8506078407905984e-03  5.8325954964849440e-04 4.4719482736105579e-04 -2.3411056745398116e-03  1.1508824506268804e-03 2.3472423825574362e-04 -2.4469235638011075e-03  2.5599241902766515e-03 4.6191022173995469e-04 -2.5163346465035819e-03  2.5985315936964365e-03 8.0267651520431660e-04 -1.2712134281478748e-03  8.2137453415490687e-04 1.0096188112393675e-03 -2.4333295735629048e-03  8.7521740040155991e-05 1.0518858376824152e-03 -3.2877628631929113e-03  1.0012446423028395e-03 1.3494213222729136e-03 -2.7580947230930099e-03  3.0950692476595573e-04 1.7886142936177091e-03 -2.0047205414065921e-03  -1.7305809146663663e-03 1.1820099225604062e-03 -1.7720682795727687e-03  -9.4586355971892086e-04 2.6911037630690955e-04 -1.3431682647925642e-03  -8.7894012864744202e-04 2.9765889491583400e-04 -1.7803238979545561e-03  -1.3977523522797723e-03 2.1189250869520750e-04 -1.7275708022378492e-03  -1.7852696119220598e-03 6.8403675021212851e-05 -2.0613880395728050e-03  -2.2100167597503676e-03 4.4599521235291973e-04 -1.7186074027871030e-03  -2.7514358411155132e-03 9.5443782278569400e-04 -1.7891618915696868e-03  -2.8504717635008448e-03 1.2460884083150578e-04 -1.9071894618949638e-03  -3.1562337248492601e-03 -2.4770770017972491e-04 -2.1680180016222352e-03  -3.0876788468269154e-03 -1.0015938950266659e-03 -2.8747130729317293e-03  -3.3295034927446890e-03 -2.1259578119771599e-03 -3.0996234839874575e-03  -2.6888686180819676e-03 -1.4082455458881587e-03 -2.6945177536974157e-03  -2.9255772358867684e-03 -2.5870776178558937e-03 -2.1248125597238157e-03  -3.0344727616438824e-03 -3.4817835591653473e-03 -1.4084006811924501e-03  -2.7267760956264683e-03 -3.5814878944817477e-03 -2.3375229297683191e-03  -3.8226806641899454e-03 -4.7196322229416379e-03 -1.9765831217052865e-03  -4.4124764230617933e-03 -5.2981635112228677e-03 -2.3912656833389853e-03  -4.7884238426383731e-03 -6.4789454178795529e-03 -3.5395878158031809e-03  -4.7392119908881460e-03 -6.7571228238893872e-03 -4.2014821150674298e-03  -4.6521740127061454e-03 -7.8858151175737103e-03 -5.3123491390847984e-03  -5.0737205861227305e-03 -8.0913821262989585e-03 -6.9981479325893856e-03  -5.2419591186231166e-03 -9.7435668416027341e-03 -7.4744412880069812e-03  -2.4487046121187180e-03 -1.1331278271061548e-02 -7.6989512434636450e-03  -6.1749917405433700e-04 -1.2522204601000808e-02 -7.4301170373351263e-03  -1.6208974650616390e-03 -1.2812512320801954e-02 -6.0995262239939251e-03  -3.3958341882486154e-03 -1.0148858259955089e-02 -4.7436746587751141e-03  -4.8516369753749773e-03 -8.4542669365331204e-03 -4.8180279650153557e-03  -5.9784096035739778e-03 -7.6050488936606035e-03 -6.3188702563213035e-03  -6.2663283690943712e-03 -6.0780363242015729e-03 -7.8687668265282045e-03  -5.2664090574885301e-03 -5.0718274321832841e-03 -8.5005410395221359e-03  -4.5423626402015891e-03 -5.0581662312200459e-03 -7.7046402852540769e-03  -4.7914392443282943e-03 -5.6872625109769814e-03 -6.2562337723563437e-03  -3.8959083166038217e-03 -5.8942545346820129e-03 -5.2430757665010421e-03  -4.4583934275865909e-03 -4.7019130082821912e-03 -5.5259025577994048e-03  -5.3487933050912016e-03 -2.4648065331277446e-03 -5.9626981688000111e-03  -4.8256755793089903e-03 -1.4497987964132207e-03 -6.3898999966633535e-03  -3.8540759087761956e-03 -1.4992611047627668e-03 -6.9127665808382957e-03  -4.0071804986371272e-03 -1.0589922197366439e-03 -7.4854659041613961e-03  -4.7716796410595111e-03 -1.1379017307136361e-03 -7.5232759472027479e-03  -5.7326132320540462e-03 -1.3748024538016625e-03 -7.1244885232874845e-03  -6.7550053015214698e-03 -1.2053921842530427e-03 -7.0111144829574073e-03  -6.6388649520021459e-03 -6.6214394326038865e-04 -4.6033104454490451e-03  -6.7575503415715273e-03 2.6399821919801493e-04 -2.5169149119381356e-03  -6.8583547958645085e-03 -9.5236865230897462e-04 -8.8024586206106358e-04  -6.8642015212545572e-03 -2.8560059976858710e-03 1.0974762309230311e-03  -6.4602329038715668e-03 -2.9883148399648179e-03 2.2190645343695640e-03  -5.9479566015429109e-03 -2.4747119262069706e-03 2.9003587867225495e-03  -4.6154987053478886e-03 -2.4382365113450638e-03 2.8052656553142811e-03  -2.8879898400989111e-03 -1.8008928789184238e-03 3.7601706405858515e-03  -1.1372505953605215e-03 -1.5621190132398776e-03 5.1553625695247313e-03  -1.0079209885477592e-04 -6.1504153424256293e-04 4.1238985634423917e-03  1.1990078134938298e-03 -1.4671535484087454e-03 2.9391748808514015e-03  1.2286589148218590e-03 -3.0746338862554902e-03 1.5720680059898599e-03  1.5928790612077055e-03 -4.5810654311845382e-03 2.7726086464318258e-03  2.5238538181801581e-03 -6.5789386007266380e-03 4.2205904892997073e-03  2.7416049739274299e-03 -7.9350337220232946e-03 5.2361890949843871e-03  2.4867440859038161e-03 -7.9712163740154798e-03 5.4158041525290083e-03  1.7894885947758290e-03 -7.6226827315317280e-03 5.4648318946699465e-03  1.5520135522280401e-03 -7.9319828440664319e-03 6.2224751246043970e-03  1.5721534948620558e-03 -8.7071657746589683e-03 5.6807983326281316e-03  1.0890079232606183e-03 -8.8150229677819280e-03 5.8709753979310888e-03  -3.1586585349352718e-04 -8.8976987803770381e-03 6.2335927923637489e-03  2.8512765026804230e-04 -1.0457779664233894e-02 6.8262493862479368e-03  4.4294850629078011e-04 -1.0620737278278806e-02 5.5613977995743894e-03  -4.0333116927571014e-04 -1.0159062941694193e-02 5.0664668086347090e-03  6.4440418002552553e-04 -9.4424314390365218e-03 5.1715558332438780e-03  2.1914692319982697e-03 -8.2404908646500612e-03 5.4389828293052080e-03  1.9073708675211968e-03 -6.1330130818674682e-03 5.0763700471376585e-03  1.5612852094565345e-03 -5.0958977483059019e-03 5.1485396304490096e-03  7.5627494096715947e-04 -3.9260453580541362e-03 5.8257505018110573e-03  7.2122483542218837e-04 -4.4276183502466723e-03 5.9384588417553683e-03  1.7668832753836791e-03 -4.8600340902705342e-03 6.3412890061999086e-03  3.3609918348129200e-03 -5.0945870107269794e-03 6.3321385010461570e-03  8.6597372234207648e-04 1.5051260877398174e-03 -2.3106571124104696e-03  1.2876891317230403e-03 1.2141364699951970e-03 -2.8296227734262210e-03  7.9993458393036411e-04 1.3129108305632120e-03 -2.4342503840019689e-03  1.3374735987518738e-04 1.0153269839721761e-03 -2.4675071450747212e-03  -1.1027918115533942e-03 7.3654506217521606e-04 -2.1939658233304979e-03  -2.0816851128080270e-03 1.0676313815648650e-04 -2.7461824568486611e-03  -2.9023301271285805e-03 -8.6399644648493641e-05 -2.2855129925756666e-03  -2.7264878992758696e-03 -1.8596045554305512e-04 -1.8155468382238071e-03  -3.2369351479736748e-03 -5.1220085082152877e-04 -1.9766739874948419e-03  -2.6877738577249567e-03 -1.3414482332326230e-03 -2.3567979066565162e-03  -2.9280098269058707e-03 -1.1736910291026657e-03 -2.3100983854614891e-03  -3.1874547454563283e-03 -1.0008034648871268e-03 -2.1417527583151136e-03  -3.6740167926556317e-03 -2.0206420888234977e-04 -2.2847187333348020e-03  -4.3428903615947440e-03 -3.7500776639768355e-04 -2.8261415141278539e-03  -4.6659287469094420e-03 -4.8178706330553037e-04 -3.3235511789135902e-03  -4.9998273956319500e-03 -1.0990262455049505e-03 -3.1037014609114812e-03  -4.6948078746466039e-03 -1.0301477444390500e-03 -3.3723141011077688e-03  -4.8393883563638031e-03 -1.4674210471266836e-03 -3.2027164322614267e-03  -4.8157404035435092e-03 -1.7625945187339229e-03 -2.9083147318284598e-03  -4.9500332612129857e-03 -1.8196561566932194e-03 -2.6291710776274002e-03  -5.4003490927480059e-03 -1.3371661066108181e-03 -2.3633861737667643e-03  -5.4813741975694120e-03 -1.4876190830188808e-03 -1.7618247985910520e-03  -6.3381127753894938e-03 -1.1771760937206522e-03 -1.5913453826867947e-03  -5.4414914570551746e-03 -8.1211614209640440e-04 -1.7868979816175812e-03  -5.0255829546148670e-03 -4.9787277574270586e-04 -1.9259920311566760e-03  -4.9265666737863282e-03 -4.7847448892271509e-04 -1.7915551766467988e-03  -4.6739273963336738e-03 -5.2912725300957694e-04 -2.0378946388149256e-03  -4.4863569300441454e-03 -7.6099333891139814e-04 -2.4682002507323483e-03  -4.7109566098677749e-03 -1.2579086437369564e-04 -2.8874153403835503e-03  -5.1528421719565379e-03 3.1938523494097026e-04 -2.6998196882987626e-03  -4.6676512230001289e-03 2.5070715363383620e-04 -2.4743453102965482e-03  -3.8191082115679887e-03 -3.9082337599108638e-05 -2.2027830000321308e-03  -3.3958848781275985e-03 1.8860172061689259e-04 -1.4078427683170841e-03  -3.4245200132739370e-03 7.3648314122195578e-05 -7.2166997688286668e-04  -2.7097414789555531e-03 -2.8524390211513478e-04 -5.9922255208197741e-04  -2.1808490121883236e-03 -5.4935760329206387e-04 -8.4721135057259217e-05  -1.9061728796060165e-03 2.8412671930249322e-04 4.7204353146212020e-04  -1.6418753601994849e-03 1.1329757895238236e-04 -1.9247855510562173e-05  -1.6123891834680716e-03 8.2242710476549915e-04 -1.5422130214070833e-04  -2.1797403122865069e-03 8.8958628343261206e-04 4.6542660513448328e-04  -2.1891462735035695e-03 9.5010712960481359e-04 1.1194439890280551e-03  -1.5566592941330406e-03 8.1791864683703299e-04 2.2289528615924408e-03  -8.1461950134115797e-04 5.0643847509667631e-04 2.2079393413301758e-03  4.3794988981188604e-04 2.1239194674801384e-04 2.0785916397318377e-03  1.1348764070437543e-03 5.7386606570710287e-04 2.7284995241560694e-03  1.2371179319577142e-03 1.0979267024521513e-03 2.7241560798907443e-03  8.4811271728326559e-04 1.2909901312010540e-03 2.9008794710503670e-03  6.8892829422341766e-04 1.7265932505747526e-03 2.3458155883091113e-03  2.2369513718763361e-04 1.8021975512332665e-03 2.3069293935806838e-03  -8.0341527400063222e-04 1.4611902162214184e-03 3.1228648536030597e-03  -6.6553030293874506e-04 1.1922486098521273e-03 3.8973165457967850e-03  -8.1221138520119258e-05 1.2862250392882094e-03 3.8189356567751155e-03  -1.5228662937146246e-04 1.2871047824376388e-03 3.7269951721566304e-03  -2.3491615104264464e-04 1.4961399553163695e-03 3.2947161167933298e-03  -1.4681991359307447e-04 1.1603146120305742e-03 2.8480977511298414e-03  -4.1925326882795146e-04 9.6655511002620475e-04 2.9057275753066655e-03  -5.0576390037754748e-04 9.6500985018861630e-05 3.5305325776696685e-03  -1.0081362297808413e-04 -5.3613353886550663e-04 3.4513728398497369e-03  -9.1666505455891239e-04 -6.9602139214898365e-04 3.1175700100326549e-03  -1.4438082597064393e-03 -5.4987680576642519e-04 2.7546425630582318e-03  -1.7813631527915008e-03 -4.7814030212107853e-04 2.6969246343110701e-03  -1.9509366362906739e-03 -3.9477523157123613e-04 2.3616370833896912e-03  -1.2962275892564250e-03 3.1392566734026232e-04 2.0547208637538535e-03  -3.4004434719626855e-04 9.3392258439722474e-04 1.5371445512103806e-03  1.4361769082127450e-03 -1.8389992513478880e-03 -2.4511385513313038e-03  1.4344537524290974e-03 -1.4588179696676325e-03 -1.9287785478705379e-03  1.4989080145707183e-03 -2.9976712010782438e-03 -3.4531387119697939e-04  1.2792956432383158e-04 -3.5787515484125097e-03 -3.9383833576166422e-04  7.8806959849614061e-05 -5.0580023097656123e-03 6.1151315080883639e-04  -8.7066177973871457e-04 -4.8072080144428934e-03 -1.0906220224706075e-03  -2.4469544440255324e-03 -2.0370568940304089e-03 -2.5746139362378575e-03  -1.1817237518886743e-03 -1.6099404962485226e-03 -2.7511054946799882e-03  -6.2515977911547008e-04 1.7010598233093972e-04 -1.9296685891677665e-03  -8.7644517060772576e-04 -4.4323517742183980e-04 -3.1650160754154084e-03  -1.0259332304567740e-03 -5.4942036314305752e-04 -4.1037224246679195e-03  -5.2262373736971471e-04 7.8383254733686858e-04 -2.4617821229569832e-03  2.8930395640143426e-04 2.6219110283340844e-03 -1.4947509604567621e-03  1.5895074781874727e-03 3.7390869031677181e-03 -3.9747752553957001e-03  1.5751195960682291e-03 7.3930433600184634e-04 -2.6288151714350234e-03  1.5543089788821835e-03 2.2592788632688925e-04 -2.1413440440658754e-03  3.1440741035248469e-04 1.9232739149698127e-03 -1.5335605586667927e-03  1.8839747013861929e-03 1.9707726063062031e-03 -1.0915818790317230e-03  2.0933723697604146e-03 6.8413173368105529e-04 -3.0515584942045109e-03  2.1003182038817933e-03 -7.7758976649370165e-05 -2.4565717692673688e-03  2.2342885535634868e-03 3.6081308256342130e-04 -1.8759572743364782e-03  2.9603936654318602e-03 7.3374013692042365e-04 -2.4786482209505204e-03  2.5695070402424855e-03 1.6696778696829897e-03 -3.2474185537468541e-03  1.6791958378465006e-03 1.4387779626493522e-03 -3.3202329921948751e-03  4.5413422365298922e-04 -9.1582571311466741e-05 -2.5554092818767908e-03  -8.8938262549779947e-04 4.3365172660791903e-04 -2.3853628310466319e-03  -4.9550175064230848e-04 1.0424226326246249e-03 -2.5381506611205393e-03  -1.2501364015337062e-03 1.4580525895612250e-03 -2.5796115613748545e-03  -4.8687014217227729e-04 1.8167801438411387e-03 -3.2665774327465822e-03  -7.3609607625220105e-04 6.3995093898758866e-04 -3.3984406581720494e-03  -7.2225390853774424e-04 -4.1607549492176247e-03 -5.8016382172673177e-04  4.0254693356307411e-04 -3.8504215903745840e-03 -1.3609510568461743e-03  4.6347523643420975e-04 -2.8763804152528148e-03 -1.1926700318994608e-03  7.6759879496987799e-04 -7.6109238177758957e-04 -7.8574082669561696e-04  1.5448782999970556e-03 -5.1882464074065864e-04 1.4499872349977450e-03  1.5376817197675205e-04 -5.6603313483578259e-04 3.5397164497229239e-04  -3.4019281869843778e-04 2.2635687984118180e-04 1.5165096947706137e-03  -5.2018226789877749e-04 8.88813471596