<?xml version="1.0"?>
<VTKFile type="UnstructuredGrid"  version="0.1"  >
<UnstructuredGrid>
<Piece  NumberOfPoints="8385" NumberOfCells="35823">
<Points>
<DataArray  type="Float64"  NumberOfComponents="3"  format="ascii">0 0 -4000  0 250000 -4000  250000 0 0  250000 250000 0  130000 0 -60000  130000 250000 -60000  250000 0 -60000  250000 250000 -60000  72147.7 166878.6 0  86225.3 177671.7 0  72082.2 161278 0  80407.60000000001 166683.7 0  66765.10000000001 151053.8 0  70533.5 147695.4 0  88829.10000000001 164696.8 0  62768.1 132621.8 0  114956.1 180662.6 0  63924.4 130258.4 0  156213.5 216508.7 0  94617.8 155302.3 0  144307.5 195630.5 0  87231.39999999999 141931.8 0  68256.5 121278.3 0  69835.5 115711.4 0  95984.2 132464.1 0  116918.1 151520.9 0  96139.8 122416.1 0  78677.39999999999 102260.8 0  93451.5 115391.6 0  111847.4 131476.2 0  107207 116320.3 0  142564.4 147908.4 0  121370.1 121838.1 0  82154.39999999999 83011.2 0  84152.3 84289.39999999999 0  99259 96094.39999999999 0  106151.5 94923 0  159682.5 139591.9 0  136050.5 110604.8 0  111591.5 84279.10000000001 0  126001.6 88238.2 0  105758.7 68122.8 0  151826.4 109709.5 0  197157.2 140577 0  129859.4 33265.4 0  140000 0 0  136000 250000 0  4857.142857142332 250000 -3857.142857142872  9714.285714284615 250000 -3714.285714285747  14571.42857143168 250000 -3571.42857142848  19428.57142857481 250000 -3428.571428571329  24285.71428571539 250000 -3285.714285714253  29142.85714285597 250000 -3142.857142857177  33999.99999999657 250000 -3000.000000000101  38857.14285713715 250000 -2857.142857143025  43714.28571427773 250000 -2714.285714285949  48571.42857141832 250000 -2571.428571428873  53428.57142855891 250000 -2428.571428571797  58285.71428569948 250000 -2285.714285714721  63142.85714284007 250000 -2142.857142857645  67999.99999998066 250000 -2000.000000000569  72857.14285712125 250000 -1857.142857143493  77714.28571426184 250000 -1714.285714286416  82571.42857140242 250000 -1571.428571429341  87428.571428543 250000 -1428.571428572265  92285.71428568359 250000 -1285.714285715189  97142.85714282417 250000 -1142.857142858113  101999.9999999648 250000 -1000.000000001036  106857.1428571053 250000 -857.1428571439606  111714.2857142459 250000 -714.2857142868847  116571.4285713865 250000 -571.4285714298085  121428.5714285271 250000 -428.5714285727327  126285.7142856677 250000 -285.7142857156564  131142.8571428107 250000 -142.8571428585083  250000 240000.0000000016 0  250000 230000.0000000032 0  250000 220000.0000000048 0  250000 210000.0000000064 0  250000 200000.0000000079 0  250000 190000.0000000095 0  250000 180000.0000000111 0  250000 170000.0000000127 0  250000 160000.0000000143 0  250000 150000.0000000159 0  250000 140000.0000000175 0  250000 130000.0000000191 0  250000 119999.9999999916 0  250000 109999.9999999825 0  250000 99999.99999998408 0  250000 89999.99999998568 0  250000 79999.99999998725 0  250000 69999.99999998885 0  250000 59999.99999999045 0  250000 49999.99999999205 0  250000 39999.99999999366 0  250000 29999.99999999526 0  250000 19999.9999999968 0  250000 9999.999999998399 0  135172.4137931034 0 -137.9310344827583  130344.8275862069 0 -275.8620689655166  125517.2413793104 0 -413.7931034482749  120689.6551724138 0 -551.7241379310333  115862.0689655173 0 -689.6551724137912  111034.4827586208 0 -827.5862068965494  106206.8965517242 0 -965.5172413793075  101379.3103448277 0 -1103.448275862066  96551.72413793117 0 -1241.379310344824  91724.13793103464 0 -1379.310344827582  86896.5517241381 0 -1517.24137931034  82068.96551724157 0 -1655.172413793098  77241.37931034504 0 -1793.103448275856  72413.79310344851 0 -1931.034482758614  67586.20689655196 0 -2068.965517241373  62758.62068965542 0 -2206.896551724131  57931.03448275886 0 -2344.827586206889  53103.44827586231 0 -2482.758620689649  48275.86206896573 0 -2620.689655172408  43448.27586206916 0 -2758.620689655167  38620.68965517257 0 -2896.551724137927  33793.103448276 0 -3034.482758620686  28965.51724137944 0 -3172.413793103445  24137.93103448287 0 -3310.344827586204  19310.34482758629 0 -3448.275862068963  14482.7586206897 0 -3586.206896551723  9655.172413793145 0 -3724.137931034482  4827.586206896551 0 -3862.068965517241  0 4999.999999999225 -4000  0 9999.999999998096 -4000  0 14999.99999999756 -4000  0 19999.99999999726 -4000  0 24999.99999999649 -4000  0 29999.99999999545 -4000  0 34999.99999999351 -4000  0 39999.99999999275 -4000  0 44999.99999999197 -4000  0 49999.9999999912 -4000  0 54999.99999999042 -4000  0 59999.99999998965 -4000  0 64999.99999998888 -4000  0 69999.99999998808 -4000  0 74999.99999998731 -4000  0 79999.99999998655 -4000  0 84999.99999998577 -4000  0 89999.99999998501 -4000  0 94999.99999998423 -4000  0 99999.99999998347 -4000  0 104999.9999999827 -4000  0 109999.9999999819 -4000  0 114999.9999999811 -4000  0 119999.9999999804 -4000  0 124999.9999999824 -4000  0 130000.0000000079 -4000  0 135000.0000000178 -4000  0 140000.000000017 -4000  0 145000.0000000163 -4000  0 150000.0000000155 -4000  0 155000.0000000147 -4000  0 160000.000000014 -4000  0 165000.0000000132 -4000  0 170000.0000000124 -4000  0 175000.0000000116 -4000  0 180000.0000000109 -4000  0 185000.0000000101 -4000  0 190000.0000000093 -4000  0 195000.0000000085 -4000  0 200000.0000000078 -4000  0 205000.000000007 -4000  0 210000.0000000062 -4000  0 215000.0000000054 -4000  0 220000.0000000047 -4000  0 225000.0000000039 -4000  0 230000.0000000031 -4000  0 235000.0000000024 -4000  0 240000.0000000016 -4000  0 245000.0000000008 -4000  138499.992698711 4754.026372277331 0  137093.2670052012 9536.639699345635 0  135699.8836753657 14323.17697982435 0  134242.0997113028 19090.39455387465 0  132631.3534429766 23807.82160930602 0  130751.3712685147 28423.75111080412 0  128562.4170940472 32902.44582968431 0  126285.2564027428 37336.77035579942 0  123661.3951409534 41572.18842203188 0  120466.1639654971 45392.17900234455 0  116742.7600150611 48701.57094013265 0  112599.2779558244 51459.89351581372 0  108052.7620132346 53498.30186482816 0  103362.6013075687 55186.61489180412 0  98626.9445524631 56744.1075396087 0  93895.10465571457 58313.07723732995 0  89213.61083253716 60025.29196098565 0  84659.98679375931 62049.90630856762 0  80423.72342827682 64664.16689082998 0  77079.46520597988 68320.91799726382 0  75401.03926413733 72984.18687963787 0  75132.31546441223 77953.39118957664 0  75517.79269400188 82922.72841733029 0  75994.12798690467 87884.97931497527 0  76141.03644053877 92865.72190814259 0  75577.6917399208 97812.27627089612 0  74056.71099135675 102551.9930892217 0  71898.80264107142 107043.8044784894 0  69421.09707510214 111369.0872951042 0  66791.23439747586 115604.1050970619 0  64120.91357323291 119813.8417572768 0  61505.46198361652 124057.7414488965 0  59050.55973913459 128395.9995763311 0  56903.24970482702 132893.1998504455 0  55303.81367464051 137609.8368688517 0  54543.69409163466 142530.9149478115 0  54488.96440186739 147512.6695308264 0  54974.77359561732 152472.3067464133 0  55867.62888085351 157375.8602543657 0  57059.2217642535 162216.0105874235 0  58457.1304431001 167000.9860755429 0  59967.68958253603 171751.8163324134 0  61481.85702780542 176501.4740946017 0  63249.74457712872 181161.0445509208 0  65477.30866714627 185617.8308927955 0  68245.7959420751 189759.2433519008 0  71520.4315061924 193514.3385976385 0  75350.61144867241 196685.7937683813 0  79773.17101542671 198974.8606729538 0  84378.90699153654 200882.4207250944 0  88911.60265377768 202954.8336515224 0  93435.45084417483 205047.09581866 0  98032.2666486997 206976.2210864664 0  102616.0836544937 208935.8107130805 0  107113.0495121478 211085.573258506 0  111372.3937621359 213667.5068784722 0  114843.2448044628 217203.7046179156 0  116698.1230832934 221806.0799432901 0  117775.060870244 226673.1998860401 0  119571.7838315423 231305.7208116875 0  122475.2761019627 235353.0279900247 0  125742.3595464658 239117.4724032586 0  129161.5121633181 242745.2442007751 0  132614.792595325 246340.7012191151 0  250000 250000 -8921.902778285936  250000 250000 -19170.47581238532  250000 250000 -30942.99472097832  250000 250000 -44466.06850109496  250000 230769.2307692338 -60000  250000 211538.4615384677 -60000  250000 192307.6923077015 -60000  250000 173076.9230769353 -60000  250000 153846.1538461692 -60000  250000 134615.384615403 -60000  250000 115384.615384597 -60000  250000 96153.84615383085 -60000  250000 76923.07692306468 -60000  250000 57692.30769229849 -60000  250000 38461.53846153233 -60000  250000 19230.76923076616 -60000  250000 0 -44466.06850109696  250000 0 -30942.99472111472  250000 0 -19170.47581244904  250000 0 -8921.90277830635  232227.1661023966 0 -60000  216296.9260375522 0 -60000  202018.2515568125 0 -60000  189219.9167941597 0 -60000  177748.4479527209 0 -60000  167466.2824799582 0 -60000  158250.1197834204 0 -60000  149989.4414908582 0 -60000  142585.1882295191 0 -60000  135948.5681760333 0 -60000  232227.1661023966 250000 -60000  216296.9260375522 250000 -60000  202018.2515568125 250000 -60000  189219.9167941597 250000 -60000  177748.4479527209 250000 -60000  167466.2824799582 250000 -60000  158250.1197834204 250000 -60000  149989.4414908582 250000 -60000  142585.1882295191 250000 -60000  135948.5681760333 250000 -60000  130000 244047.61904762 -60000  130000 238095.23809524 -60000  130000 232142.85714286 -60000  130000 226190.47619048 -60000  130000 220238.0952381 -60000  130000 214285.7142857199 -60000  130000 208333.3333333399 -60000  130000 202380.9523809599 -60000  130000 196428.5714285799 -60000  130000 190476.1904761999 -60000  130000 184523.8095238199 -60000  130000 178571.4285714399 -60000  130000 172619.0476190599 -60000  130000 166666.6666666799 -60000  130000 160714.2857142999 -60000  130000 154761.9047619199 -60000  130000 148809.5238095399 -60000  130000 142857.1428571599 -60000  130000 136904.7619047798 -60000  130000 130952.3809523998 -60000  130000 125000.0000000169 -60000  130000 119047.6190476054 -60000  130000 113095.2380
[...]
<PointData  Vectors="sample_prior"> 
<DataArray  type="Float64"  Name="sample_prior"  NumberOfComponents="3" format="ascii">1.1528133061051960e-02 -6.6576013663265207e-04 -6.7668596425647166e-04  -3.1543260779173126e-03 4.1163054185284608e-03 -9.8930278210199330e-03  6.8536610847469263e-04 -1.5842418560822640e-03 7.6928374816244600e-04  -5.9779760143656973e-03 1.8396729706359526e-03 -3.8950150899259074e-03  1.2052446467506884e-03 2.8441225871651530e-03 3.6852341441671434e-03  -4.2320238872475598e-03 3.3323619118249425e-04 -2.6063137789696304e-03  -2.7662556282558068e-03 -1.8833020905381758e-03 -3.5441042618615526e-03  -3.8448235117947678e-03 2.9409560448003845e-03 -1.4750858297202277e-03  -2.3332755624195217e-03 5.2984520755977307e-03 -1.6612301770027042e-03  -2.4494734449701334e-03 3.0620214237515406e-03 1.9735144393854956e-04  -2.1607744547636467e-03 5.3564762034331442e-03 -2.1721856753319922e-03  -1.9692384255925203e-03 3.9235176171181817e-03 -5.1902108951883141e-04  -2.4404862322840817e-03 6.2078824666954502e-03 -3.5586368735019956e-03  -1.8433915297536370e-03 6.0510125206478102e-03 -3.2659097349968663e-03  -1.9443820419861725e-03 3.0022193088939061e-03 2.5716428500165286e-04  -1.8305167623868654e-03 3.1847999083979613e-03 -4.3744684530546236e-03  -2.8659627676164384e-03 1.0585828107998194e-03 1.0898722968727094e-05  -2.1759072007928280e-03 2.9433499431896631e-03 -3.8249326711752977e-03  -2.0195646612402749e-03 3.5819678882305204e-04 1.2721710015402832e-03  -2.1262393660814176e-03 2.5465423336495621e-03 1.1865780044432086e-04  -2.5256420305932214e-03 -3.2203866204575033e-04 1.0419363228142766e-03  -1.8845043987451759e-03 3.6447993589117994e-03 -8.9510549430265251e-04  -2.5225742605162371e-03 2.4674065722566688e-03 -2.8604924683376608e-03  -2.6213995475305035e-03 2.6139230888941657e-03 -2.8898287202184427e-03  -2.5918227696148238e-03 2.4595722222659549e-03 -8.1581055342916701e-04  -3.3067176398385370e-03 1.0790286741736738e-03 2.6577502621297189e-04  -2.4372389878710298e-03 2.0738062351588486e-03 -1.1886167391681247e-03  -2.0182205542929925e-04 2.3806625452523766e-03 -2.1218457651615264e-03  -2.4314369868454104e-03 1.9312546723855137e-03 -1.7059238103033258e-03  -2.4895613125640106e-03 1.0482353880172095e-03 -5.5110931685239198e-05  -1.6765384356778343e-03 1.1915075147882013e-03 -7.9387048510273089e-04  -1.5759049712502698e-03 4.9201059044264248e-05 1.1583340733916762e-03  -2.0414851210369994e-03 6.0397837229989992e-04 -1.2891911797683342e-04  1.9422944938220835e-03 1.0275232757961323e-03 -2.0440637055584160e-03  1.5401941750356617e-03 8.4178364029635503e-04 -2.1919279226551261e-03  6.3026017720568860e-04 1.1169941618697104e-03 -1.1730640228100923e-03  6.2159489136258351e-04 5.0704063693700037e-04 -5.1241672403884323e-04  -1.5002281654060365e-03 4.5146054348684303e-04 7.2789548279610539e-04  -1.8673256762805079e-03 4.5355750121717914e-04 1.7774500325579097e-04  1.5981857432938174e-03 1.0959855557737827e-03 -1.2310666144626932e-03  -2.6519391167501472e-04 1.8894275499262069e-04 3.2061727756570543e-04  3.2815996675701667e-03 1.3775285728202856e-03 -2.3192293992327749e-04  -2.5850025916352949e-03 6.3711533753432986e-04 -3.4226535730901735e-04  3.4514042822769952e-04 1.5103581680275808e-03 -5.6248414851347488e-04  1.8543192397282159e-03 2.5580948124861646e-03 9.9425909476912456e-04  3.4934821867808469e-03 1.0760078795793898e-04 6.2285710689177960e-04  -2.6705830904872985e-03 -2.6519442216909645e-03 -1.0535142020902026e-03  -2.5341189769640072e-03 3.7879636026192601e-03 -9.3473667548134368e-03  -1.7838178754357875e-03 3.2951603001198462e-03 -6.9426081337180994e-03  -2.2579000197010743e-03 4.2710270019205559e-03 -5.7129454833190398e-03  -2.7362086100808760e-03 4.4696885300665604e-03 -6.1425250063328798e-03  -3.6295869380129843e-03 4.2501198236870692e-03 -4.8832838294336524e-03  -4.3353931434044228e-03 5.0098305938724511e-03 -4.6877324891891623e-03  -4.0658967259165459e-03 6.1387954544403732e-03 -3.9211347266272954e-03  -3.7116672877553162e-03 6.3357377780728120e-03 -3.2811154532185025e-03  -3.1999159326634723e-03 6.2509071169631102e-03 -3.8996726383280444e-03  -4.2637052589117857e-03 6.6988696540238183e-03 -4.1567891554555106e-03  -4.1297826786991301e-03 4.9513656180601136e-03 -3.6575018227485178e-03  -3.8568106397282882e-03 3.6628232831034404e-03 -3.8680345668170380e-03  -3.7768674167653971e-03 3.2747622650582736e-03 -4.0025336477343210e-03  -3.2364849733627996e-03 3.0437130146860380e-03 -4.2447708207135615e-03  -2.7793604392949067e-03 3.0683309046437993e-03 -4.1401707376426001e-03  -3.3605255273281634e-03 2.7873720543710699e-03 -4.8354801083126632e-03  -2.9051470682868535e-03 1.5553622774783689e-03 -4.7582040836651254e-03  -3.4998489653645061e-03 -1.4018163287767834e-04 -3.8491926034180785e-03  -3.0227817905969195e-03 -1.3758807227932472e-03 -2.7437660873935342e-03  -2.0255501730893841e-03 -1.6228370833143129e-03 -2.7123584804444661e-03  -2.3850329876052463e-03 -1.7641377897109063e-03 -2.7344924796432481e-03  -3.2157291944374198e-03 -2.0790023519503169e-03 -2.2739087087867579e-03  -2.4339271915481651e-03 -1.0738693519818968e-03 -2.3866880092774496e-03  -2.4432152782211071e-03 -2.4814513979727555e-04 -1.4583005162989284e-03  -1.9462221811365184e-03 -1.3608763338481948e-03 -1.3572544002214205e-03  -2.7011914602093692e-03 -9.3744013061811745e-04 -1.4568194251804677e-03  -2.8372018392124306e-03 -1.3132958933472915e-03 -1.5371362947194523e-03  -5.0917780177873540e-03 1.6020191571071232e-03 -3.8857396321208973e-03  -3.9348116194772263e-03 1.0614464808571340e-03 -2.0482284993830623e-03  -2.0234150883990782e-03 1.4895701425531422e-03 -2.0147098047130405e-03  -2.1498705565190890e-03 3.0372298755401042e-03 -2.5511235956189979e-03  -2.2988318100306999e-03 4.7531879819812314e-03 -2.3944051487095708e-03  -1.5658145077684031e-03 4.4540109794944452e-03 -1.0330785438265845e-03  6.7846596684146990e-04 4.8697622121839047e-03 -4.8671130279241578e-04  1.2222175189656518e-03 5.2261634879616900e-03 -1.5914477136798899e-03  3.8893798884491763e-04 4.6572785241925253e-03 -2.6094934001075201e-03  4.2374937640325786e-04 4.0124458459345133e-03 -1.8813348673960095e-03  2.0874903941519147e-03 3.4940059890736543e-03 -2.6153214718302896e-03  1.3762943432254109e-03 3.9059601219591541e-03 -3.7766490797776541e-03  1.5632357089022766e-03 3.0012336920362892e-03 -2.8796119843808553e-03  2.6194631186303358e-03 2.2751031315460038e-03 -3.1718243944222038e-03  1.0933291246565434e-03 1.1374873360702428e-03 -4.7789880152041588e-03  1.1147084695031595e-03 1.0936040918525277e-03 -4.5811390302148824e-03  1.4186823839069476e-03 7.6276396299652677e-04 -3.7586052788665171e-03  7.5678643577356867e-04 1.4016279855205984e-04 -2.6304324737991512e-03  1.5056891020159003e-04 -7.0744406432975593e-04 -2.1316204472529563e-03  7.0437146633677884e-04 -1.4641342431795719e-03 -2.3611719309961279e-03  1.6591916893466529e-03 -1.3144060457025576e-03 -2.4567148109589793e-03  8.6627294991104779e-04 -1.3935500937208494e-03 -1.4440870480186235e-03  1.4795695061966935e-03 -1.3049861466241403e-03 -8.4858218024151764e-04  9.8387539454226013e-04 -1.3573318541675737e-03 -6.5867614159585084e-05  2.3438733008495877e-03 -3.1706237085186293e-05 -3.3806710986864272e-04  2.8654718907296837e-03 6.7405146487756619e-04 -1.5167924976555321e-04  3.1154528439270848e-03 2.4251712014862147e-03 -2.3317303160691474e-05  3.5408218439596300e-03 1.9081382206040654e-03 6.1929360757029945e-04  4.0034660740077286e-03 3.0196907678349061e-03 9.8376476429590069e-04  3.6707604413752327e-03 3.4784105191833243e-03 1.8738100555636798e-03  3.8612853251034228e-03 2.9358207547682752e-03 1.3073087513807917e-03  3.5849960410765467e-03 2.8000150752486293e-03 -1.0068827602504413e-04  4.2005306214883305e-03 2.3786789602893276e-03 -1.1472242775368731e-03  4.7062841025558907e-03 2.2390066551924580e-03 -7.2466874373107741e-04  4.3696388875434687e-03 3.0770037213692760e-03 -8.2277488031983457e-04  4.7098972497940858e-03 2.9328750034522924e-03 -7.0884517479511344e-04  4.7404174123651735e-03 3.2069375821897959e-03 -9.8522557500515650e-04  5.3360172719129073e-03 3.1845422425977087e-03 1.0351656750240870e-04  6.2706796088320390e-03 3.6150978934956037e-03 6.2617400633011055e-04  6.1729290157361500e-03 4.2327014601894752e-03 3.7163115617670788e-04  5.6028116836123135e-03 4.2451399034089937e-03 4.3492433920569825e-04  6.5825031292039158e-03 3.0571356255129972e-03 9.3782974447670256e-04  7.5575246151084810e-03 3.0761893337574496e-03 2.8122094588524176e-04  8.1947555472434170e-03 2.8297301913167844e-03 3.7853753754367621e-04  9.2183052640980191e-03 3.0588528855183795e-03 9.6106777427839587e-04  9.1926408562993996e-03 2.6862690415665820e-03 1.4239065454504172e-03  1.0230494843981489e-02 1.0616493527487363e-03 2.2931734068392393e-03  1.1544506964434294e-02 9.0643781314692204e-04 1.7766041487450111e-03  1.1713179821644725e-02 9.0269670941320215e-05 7.8773471316434713e-04  1.2532892263395835e-02 -1.1750977283873948e-03 4.2889636888228036e-04  1.2170826930629418e-02 -9.1928996955206830e-04 -4.9526085680005199e-04  1.2325586036099347e-02 -4.7692576994678168e-04 -1.2432230358642054e-03  1.2539689282088731e-02 -8.7458749172930779e-04 1.9005253484542139e-04  1.5072777831554069e-02 -1.3080645928798453e-03 9.9972419714148869e-04  1.5775967607189523e-02 -1.3174802823325100e-03 4.2071632022178530e-04  1.6135574191589935e-02 -1.2327436459457490e-03 4.3512454610415176e-04  1.6622842520107685e-02 -2.3698893401617946e-03 2.5648885059962067e-03  1.6939065270247047e-02 -2.5745441338033033e-03 2.2245096850060037e-03  1.6929135882032622e-02 -4.0861002666723210e-03 6.4428108470443337e-04  1.4903807699053209e-02 -6.0918944874632942e-03 6.8309916143506502e-04  1.2930105719569358e-02 -8.5441527586695362e-03 1.5980635415261625e-03  1.1686498973135092e-02 -8.4658395109117462e-03 1.4523902871638086e-03  1.1330588375352968e-02 -6.3871357099475768e-03 2.6960072195550138e-03  1.0641416859250123e-02 -4.5873035915685433e-03 2.7666382474374716e-03  9.3813927437759025e-03 -2.7656850672468617e-03 3.3785395434203776e-03  8.0599742598512856e-03 -1.6435321744507135e-03 3.0721699881397454e-03  6.0057664408787598e-03 -8.4749494950410648e-04 1.4910594656360773e-03  4.0007313028459198e-03 -6.0778248758366926e-04 -7.4565796568328688e-05  3.7545301522207966e-03 -3.7522401518986283e-04 -1.3701380215705740e-03  2.2554639842370513e-03 -5.3765050190478247e-04 -2.8671388255909515e-03  1.1805884341498370e-03 3.8460323207255195e-04 -3.1374975505445084e-03  -8.4290063161560373e-04 2.1782980322810377e-04 -3.8906515350498106e-03  -3.3176275966603254e-03 -4.7775970482992995e-04 -5.5279649715933516e-03  -2.8674567053778351e-03 -7.7321620663945909e-04 -6.9315707141147020e-03  -2.5810868494694421e-03 7.9597501561873472e-05 -6.9774222874809206e-03  -3.3433970527154515e-03 1.4812851016235090e-03 -7.6128498903452633e-03  -3.7408972457826616e-03 2.4250556756322691e-03 -9.0803031627821381e-03  -3.1835929968670241e-03 3.2753506685786562e-03 -9.5573769068101905e-03  -3.0275685659819185e-03 3.8124968989930725e-03 -8.8927084651612316e-03  -1.4274039598994451e-03 6.0323514645943344e-03 -8.0033030956343509e-03  -7.9484664663222572e-04 7.2972054167821298e-03 -7.0293814320544507e-03  -1.0486722689774541e-03 8.2353878661662709e-03 -6.8515820517607243e-03  -2.9977686315968391e-03 1.0322872913366475e-02 -5.9347273215577950e-03  -5.2386013052529755e-03 1.1427562742055357e-02 -3.3205584097152391e-03  -4.7956197201214192e-03 1.2191909422771732e-02 -1.5429023679790173e-03  -3.1512394688365062e-03 1.2494381074641625e-02 -4.1315352367334604e-04  -2.2660702012145205e-03 1.3506154330378491e-02 1.2985724747587672e-03  -2.6950797039257991e-03 1.2279123869789969e-02 2.9141326838827940e-04  -2.0139021738757971e-03 1.0742027096749528e-02 -1.2305448107204488e-03  -2.9101508658998299e-03 1.0372124726195074e-02 -1.5699903141422650e-03  -2.0157607591534195e-03 1.0630543128030384e-02 -2.7236954605980987e-03  -2.3060335877351560e-03 8.6031611326558219e-03 -3.2736952537532039e-03  -2.6270477641318077e-03 6.7307979707990585e-03 -3.7515188374030936e-03  -2.0979529304456807e-03 5.0653187080078686e-03 -4.3003233782150730e-03  -1.1326529106722397e-03 4.2835921740899041e-03 -4.8315869752486263e-03  -8.6922804056162328e-04 2.9509298555335521e-03 -5.6549615227227470e-03  5.3316012914771268e-04 1.6407178420426911e-03 -5.6485901276762873e-03  1.1967285795804943e-03 2.9255382904469149e-03 -4.2046140779605718e-03  1.2627570721090344e-03 3.2233171333394001e-03 -5.0548555044557303e-03  1.1681359272227704e-06 2.7177536493198868e-03 -7.3811326729298337e-03  -1.6936177396943864e-03 2.9691442978051785e-03 -9.1341563107887741e-03  2.9846817099802689e-03 5.2967522043453322e-04 3.3385116416672158e-04  2.3405549385666488e-03 1.0464484165072757e-03 7.5546049425882767e-04  1.8581748399880468e-03 1.1751392495535230e-03 5.5853615988154354e-04  1.9404831828794150e-03 2.0870105551845965e-03 4.2776725278118711e-04  2.1402848467041670e-03 1.7905482429361036e-03 7.0406097863903933e-04  1.8955864423637599e-03 1.9630443480606651e-03 5.6318659863504293e-04  1.9406745464371103e-03 2.7274381446804430e-03 9.9096555828458253e-04  1.6128264929551835e-03 2.1818519364981562e-03 5.3101306347387730e-04  1.3314992795308237e-03 1.7637486664659552e-03 6.0041894456742061e-04  1.3782665822407499e-03 1.4894789377248342e-03 6.5473634955294751e-04  1.5238370533452877e-03 1.2055596049791704e-03 1.7058768576461218e-04  1.5237601656359909e-03 3.8762811347226663e-04 -2.6369047548508644e-04  2.1241726097200736e-03 7.4122686359797329e-04 1.7163425696147124e-04  2.8745050246720334e-03 7.2784376596323158e-04 8.1122099959288999e-04  3.1437050281555574e-03 6.1252264126663246e-04 1.1635287085063545e-03  3.3154470792001824e-03 1.1201930197244693e-03 5.5297747434169577e-04  3.4850099664792324e-03 1.7569785957559452e-03 7.7300730129906196e-05  3.2876108403396293e-03 1.9114907979548273e-03 -2.0815597405780413e-04  2.5769375167540602e-03 1.9956126174680605e-03 1.6287577300744086e-05  3.3493791395207426e-03 1.5028385636183326e-03 -2.5209888870117631e-04  3.3039225593949522e-03 1.6648677337275783e-03 -3.1976866972032841e-04  2.7591794992932591e-03 1.6739525010001088e-03 -7.2303558822322926e-04  1.6393195583799965e-03 1.5098049901703366e-03 -1.6307410973366511e-03  2.0740019653173996e-04 1.7193759516491239e-03 -1.7948689759491627e-03  -8.1680678791836976e-04 1.9076664672430378e-03 -1.7327615768056874e-03  -9.0623045273606712e-04 1.7754353668462204e-03 -1.7273667006279031e-03  -8.1792950926467124e-04 2.0028590245440817e-03 -1.8799234663685917e-03  -1.1987219835520450e-03 2.3869400214091125e-03 -2.3960746481315734e-03  -2.0724882190008799e-03 2.5674058359229186e-03 -2.5993144205882905e-03  -2.5726168710937924e-03 2.3874200308176183e-03 -2.7835756306500170e-03  -3.0420870048520855e-03 2.0388171445325557e-03 -3.0008633472421160e-03  -2.9562495466715242e-03 2.2406750176465831e-03 -3.4337081438383567e-03  -2.4707615682172251e-03 2.5600690334735081e-03 -3.5479900140527572e-03  -1.8968735307210681e-03 3.9476165095099830e-03 -3.8740257633039575e-03  -1.8245811357482798e-03 4.6215484246388324e-03 -4.1621833238953470e-03  -1.6845635897977560e-03 5.3322958456689324e-03 -4.3244734261801343e-03  -1.3249469780460704e-03 5.6946168872995251e-03 -3.0499919509646687e-03  -1.4857550438244361e-03 5.7032047716022985e-03 -2.6337388979033659e-03  -1.8193426756272827e-03 5.9079572600205885e-03 -2.3976009769461084e-03  -1.9289298079661393e-03 5.7710704097418348e-03 -2.0268766720094832e-03  -2.4519961170084786e-03 5.3440587406079799e-03 -1.9447522748137918e-03  -3.1645515407876918e-03 5.1445248319918341e-03 -1.5537998584731628e-03  -3.6035601143662743e-03 4.3491215889746348e-03 -1.2370088699678117e-03  -3.6916279850009747e-03 3.5788546625112258e-03 -3.9823027287524965e-04  -3.1097699699475616e-03 3.2034035238191977e-03 2.5227123586027682e-04  -2.1275468593755435e-03 3.3195996088925986e-03 4.4830743680744921e-04  -1.8583734435313293e-03 3.6084659080255392e-03 1.0167688510547433e-05  -1.9246589515616135e-03 3.0089176552032543e-03 -9.3826457704545565e-04  -2.3516773372305186e-03 2.9238238711940118e-03 -1.0771805061868414e-03  -2.4904923175118228e-03 2.7779452384852220e-03 -1.2495036148412082e-03  -2.4164713921474034e-03 2.3524741234747472e-03 -1.2995085940117053e-03  -2.2767052572085500e-03 2.0419466367614389e-03 -1.3165623952985876e-03  -2.7279479288927822e-03 1.3120583165924242e-03 -1.5935371922948438e-03  -3.1648095521051738e-03 -4.4718701724129947e-04 -1.7627994495639458e-03  -2.2287700987592158e-03 -1.0660780713870241e-03 -2.6577648015771241e-03  -1.8893904193139136e-03 -1.6903627823394898e-03 -2.9947781523112574e-03  -2.0205178386976989e-03 -2.6572494307370697e-03 -2.6046344339177791e-03  -2.0441084675046121e-03 -2.0047180338970908e-03 -1.5524566483389594e-03  -1.6853376119794405e-03 -1.7818047218165446e-03 -1.1434170619768977e-03  -1.4986407889054053e-03 -1.9245551580483937e-03 -1.2373322221943628e-03  -1.6253394763142527e-03 -1.7226724677364448e-03 -1.1750674852301138e-03  -2.0416100210534018e-03 -1.4196601796083914e-03 -1.4089501392924892e-03  -2.4249514738797400e-03 -1.2614118943470296e-03 -1.7357384031387875e-03  -2.5607326047335632e-03 -2.2149893144722695e-03 -1.3908832933092045e-03  -4.4679737819417831e-03 1.6617896849402763e-03 -4.2210598711380914e-03  -4.0327256079460572e-03 2.7148754976718645e-03 -3.5805006926082879e-03  -3.0897173150391459e-03 3.7152754547433151e-03 -1.7227860615024581e-03  -3.4904473216966201e-03 4.8624773477676858e-03 -2.1418231604999442e-03  -3.2063608903079447e-03 3.9727618381962199e-03 -1.2244610419667652e-03  -2.3236693164853306e-03 8.1956519547771536e-04 -2.8482401019921564e-04  -1.0103802857322289e-03 1.6859818515336698e-03 -4.7344630051437687e-04  -1.3961694516079945e-03 2.0487150196945975e-03 -2.7680395603388872e-03  -1.4712375192434590e-03 8.5495955581195080e-04 -2.3428696970015481e-03  6.7237941504082286e-04 6.4179032485706588e-04 -2.2992622867802738e-03  1.4547649284812330e-03 1.0360384437268420e-04 -3.3807314215438399e-03  1.2894430370929272e-03 3.2331284399797689e-04 -2.8271523417969600e-03  4.9150351698541738e-04 2.8636650199277312e-04 -3.6008926112046655e-03  9.1349763994669523e-04 -2.4865177698656115e-03 -2.7928947252472223e-03  7.2666035981507147e-04 -3.2454558463706267e-03 -2.4190003101876270e-03  -9.9018938426412967e-04 -3.1904589225006229e-03 -3.4935767154000434e-03  -1.0814098546108580e-03 -2.7456150877500458e-03 -5.0833746307993614e-03  2.4489537956322738e-04 -2.4773900313772631e-03 -3.9260584474912147e-03  6.6182854096538083e-04 -1.4698125546414400e-03 -1.9114919968792905e-03  8.6541764563505697e-04 -3.2313018840205983e-04 -7.7006713206458045e-04  -6.7248058088345260e-04 -1.9764397643898977e-03 -2.8082728413159831e-03  3.2769155912600658e-04 -2.0571818915923390e-03 -2.7784137448644409e-03  2.2855268551746449e-04 -1.5071925620305071e-03 -1.7925375264977673e-03  1.4972952644052417e-03 -9.4933487846710302e-04 4.6453013907629079e-04  1.9552301710539905e-03 3.5229538019519507e-04 1.9168147934626601e-03  7.9103005285737057e-04 7.7065381098985529e-04 1.7234071881007346e-03  2.5067971631321774e-04 2.2522536940108477e-04 2.0422380018737555e-03  -4.8207148415272143e-04 9.4859113354787386e-04 3.0717208069786731e-03  -1.1459576329021419e-04 9.9500865590275043e-04 3.3070413960790569e-03  3.9275290063586925e-05 1.4379419796217894e-03 3.5613105021392913e-03  -4.3598331502918766e-03 2.2557448049718965e-03 -1.7511607467468480e-03  -3.2725107250085521e-03 1.2878740798077347e-03 -2.5032846815329630e-03  -2.2383516442262908e-03 1.4757919992512594e-04 -1.3581431334858942e-03  -2.5032804325115128e-03 -6.0564358416234481e-05 -1.8111872381478716e-03  -3.9060347642988396e-03 -1.0614918485021204e-05 -1.9547436221829862e-03  -4.1822061277755149e-03 -9.3748303206974196e-04 -2.4178988695655258e-03  -4.4273358897707095e-03 -8.4991280947829112e-04 -2.8470263693880478e-03  -3.4094991746632789e-03 -1.1946694520557567e-03 -3.3057850854619048e-03  -3.2385726368834920e-03 -5.1378459689968548e-04 -2.343769