<?xml version="1.0"?>
<VTKFile type="UnstructuredGrid"  version="0.1"  >
<UnstructuredGrid>
<Piece  NumberOfPoints="8385" NumberOfCells="35823">
<Points>
<DataArray  type="Float64"  NumberOfComponents="3"  format="ascii">0 0 -4000  0 250000 -4000  250000 0 0  250000 250000 0  130000 0 -60000  130000 250000 -60000  250000 0 -60000  250000 250000 -60000  72147.7 166878.6 0  86225.3 177671.7 0  72082.2 161278 0  80407.60000000001 166683.7 0  66765.10000000001 151053.8 0  70533.5 147695.4 0  88829.10000000001 164696.8 0  62768.1 132621.8 0  114956.1 180662.6 0  63924.4 130258.4 0  156213.5 216508.7 0  94617.8 155302.3 0  144307.5 195630.5 0  87231.39999999999 141931.8 0  68256.5 121278.3 0  69835.5 115711.4 0  95984.2 132464.1 0  116918.1 151520.9 0  96139.8 122416.1 0  78677.39999999999 102260.8 0  93451.5 115391.6 0  111847.4 131476.2 0  107207 116320.3 0  142564.4 147908.4 0  121370.1 121838.1 0  82154.39999999999 83011.2 0  84152.3 84289.39999999999 0  99259 96094.39999999999 0  106151.5 94923 0  159682.5 139591.9 0  136050.5 110604.8 0  111591.5 84279.10000000001 0  126001.6 88238.2 0  105758.7 68122.8 0  151826.4 109709.5 0  197157.2 140577 0  129859.4 33265.4 0  140000 0 0  136000 250000 0  4857.142857142332 250000 -3857.142857142872  9714.285714284615 250000 -3714.285714285747  14571.42857143168 250000 -3571.42857142848  19428.57142857481 250000 -3428.571428571329  24285.71428571539 250000 -3285.714285714253  29142.85714285597 250000 -3142.857142857177  33999.99999999657 250000 -3000.000000000101  38857.14285713715 250000 -2857.142857143025  43714.28571427773 250000 -2714.285714285949  48571.42857141832 250000 -2571.428571428873  53428.57142855891 250000 -2428.571428571797  58285.71428569948 250000 -2285.714285714721  63142.85714284007 250000 -2142.857142857645  67999.99999998066 250000 -2000.000000000569  72857.14285712125 250000 -1857.142857143493  77714.28571426184 250000 -1714.285714286416  82571.42857140242 250000 -1571.428571429341  87428.571428543 250000 -1428.571428572265  92285.71428568359 250000 -1285.714285715189  97142.85714282417 250000 -1142.857142858113  101999.9999999648 250000 -1000.000000001036  106857.1428571053 250000 -857.1428571439606  111714.2857142459 250000 -714.2857142868847  116571.4285713865 250000 -571.4285714298085  121428.5714285271 250000 -428.5714285727327  126285.7142856677 250000 -285.7142857156564  131142.8571428107 250000 -142.8571428585083  250000 240000.0000000016 0  250000 230000.0000000032 0  250000 220000.0000000048 0  250000 210000.0000000064 0  250000 200000.0000000079 0  250000 190000.0000000095 0  250000 180000.0000000111 0  250000 170000.0000000127 0  250000 160000.0000000143 0  250000 150000.0000000159 0  250000 140000.0000000175 0  250000 130000.0000000191 0  250000 119999.9999999916 0  250000 109999.9999999825 0  250000 99999.99999998408 0  250000 89999.99999998568 0  250000 79999.99999998725 0  250000 69999.99999998885 0  250000 59999.99999999045 0  250000 49999.99999999205 0  250000 39999.99999999366 0  250000 29999.99999999526 0  250000 19999.9999999968 0  250000 9999.999999998399 0  135172.4137931034 0 -137.9310344827583  130344.8275862069 0 -275.8620689655166  125517.2413793104 0 -413.7931034482749  120689.6551724138 0 -551.7241379310333  115862.0689655173 0 -689.6551724137912  111034.4827586208 0 -827.5862068965494  106206.8965517242 0 -965.5172413793075  101379.3103448277 0 -1103.448275862066  96551.72413793117 0 -1241.379310344824  91724.13793103464 0 -1379.310344827582  86896.5517241381 0 -1517.24137931034  82068.96551724157 0 -1655.172413793098  77241.37931034504 0 -1793.103448275856  72413.79310344851 0 -1931.034482758614  67586.20689655196 0 -2068.965517241373  62758.62068965542 0 -2206.896551724131  57931.03448275886 0 -2344.827586206889  53103.44827586231 0 -2482.758620689649  48275.86206896573 0 -2620.689655172408  43448.27586206916 0 -2758.620689655167  38620.68965517257 0 -2896.551724137927  33793.103448276 0 -3034.482758620686  28965.51724137944 0 -3172.413793103445  24137.93103448287 0 -3310.344827586204  19310.34482758629 0 -3448.275862068963  14482.7586206897 0 -3586.206896551723  9655.172413793145 0 -3724.137931034482  4827.586206896551 0 -3862.068965517241  0 4999.999999999225 -4000  0 9999.999999998096 -4000  0 14999.99999999756 -4000  0 19999.99999999726 -4000  0 24999.99999999649 -4000  0 29999.99999999545 -4000  0 34999.99999999351 -4000  0 39999.99999999275 -4000  0 44999.99999999197 -4000  0 49999.9999999912 -4000  0 54999.99999999042 -4000  0 59999.99999998965 -4000  0 64999.99999998888 -4000  0 69999.99999998808 -4000  0 74999.99999998731 -4000  0 79999.99999998655 -4000  0 84999.99999998577 -4000  0 89999.99999998501 -4000  0 94999.99999998423 -4000  0 99999.99999998347 -4000  0 104999.9999999827 -4000  0 109999.9999999819 -4000  0 114999.9999999811 -4000  0 119999.9999999804 -4000  0 124999.9999999824 -4000  0 130000.0000000079 -4000  0 135000.0000000178 -4000  0 140000.000000017 -4000  0 145000.0000000163 -4000  0 150000.0000000155 -4000  0 155000.0000000147 -4000  0 160000.000000014 -4000  0 165000.0000000132 -4000  0 170000.0000000124 -4000  0 175000.0000000116 -4000  0 180000.0000000109 -4000  0 185000.0000000101 -4000  0 190000.0000000093 -4000  0 195000.0000000085 -4000  0 200000.0000000078 -4000  0 205000.000000007 -4000  0 210000.0000000062 -4000  0 215000.0000000054 -4000  0 220000.0000000047 -4000  0 225000.0000000039 -4000  0 230000.0000000031 -4000  0 235000.0000000024 -4000  0 240000.0000000016 -4000  0 245000.0000000008 -4000  138499.992698711 4754.026372277331 0  137093.2670052012 9536.639699345635 0  135699.8836753657 14323.17697982435 0  134242.0997113028 19090.39455387465 0  132631.3534429766 23807.82160930602 0  130751.3712685147 28423.75111080412 0  128562.4170940472 32902.44582968431 0  126285.2564027428 37336.77035579942 0  123661.3951409534 41572.18842203188 0  120466.1639654971 45392.17900234455 0  116742.7600150611 48701.57094013265 0  112599.2779558244 51459.89351581372 0  108052.7620132346 53498.30186482816 0  103362.6013075687 55186.61489180412 0  98626.9445524631 56744.1075396087 0  93895.10465571457 58313.07723732995 0  89213.61083253716 60025.29196098565 0  84659.98679375931 62049.90630856762 0  80423.72342827682 64664.16689082998 0  77079.46520597988 68320.91799726382 0  75401.03926413733 72984.18687963787 0  75132.31546441223 77953.39118957664 0  75517.79269400188 82922.72841733029 0  75994.12798690467 87884.97931497527 0  76141.03644053877 92865.72190814259 0  75577.6917399208 97812.27627089612 0  74056.71099135675 102551.9930892217 0  71898.80264107142 107043.8044784894 0  69421.09707510214 111369.0872951042 0  66791.23439747586 115604.1050970619 0  64120.91357323291 119813.8417572768 0  61505.46198361652 124057.7414488965 0  59050.55973913459 128395.9995763311 0  56903.24970482702 132893.1998504455 0  55303.81367464051 137609.8368688517 0  54543.69409163466 142530.9149478115 0  54488.96440186739 147512.6695308264 0  54974.77359561732 152472.3067464133 0  55867.62888085351 157375.8602543657 0  57059.2217642535 162216.0105874235 0  58457.1304431001 167000.9860755429 0  59967.68958253603 171751.8163324134 0  61481.85702780542 176501.4740946017 0  63249.74457712872 181161.0445509208 0  65477.30866714627 185617.8308927955 0  68245.7959420751 189759.2433519008 0  71520.4315061924 193514.3385976385 0  75350.61144867241 196685.7937683813 0  79773.17101542671 198974.8606729538 0  84378.90699153654 200882.4207250944 0  88911.60265377768 202954.8336515224 0  93435.45084417483 205047.09581866 0  98032.2666486997 206976.2210864664 0  102616.0836544937 208935.8107130805 0  107113.0495121478 211085.573258506 0  111372.3937621359 213667.5068784722 0  114843.2448044628 217203.7046179156 0  116698.1230832934 221806.0799432901 0  117775.060870244 226673.1998860401 0  119571.7838315423 231305.7208116875 0  122475.2761019627 235353.0279900247 0  125742.3595464658 239117.4724032586 0  129161.5121633181 242745.2442007751 0  132614.792595325 246340.7012191151 0  250000 250000 -8921.902778285936  250000 250000 -19170.47581238532  250000 250000 -30942.99472097832  250000 250000 -44466.06850109496  250000 230769.2307692338 -60000  250000 211538.4615384677 -60000  250000 192307.6923077015 -60000  250000 173076.9230769353 -60000  250000 153846.1538461692 -60000  250000 134615.384615403 -60000  250000 115384.615384597 -60000  250000 96153.84615383085 -60000  250000 76923.07692306468 -60000  250000 57692.30769229849 -60000  250000 38461.53846153233 -60000  250000 19230.76923076616 -60000  250000 0 -44466.06850109696  250000 0 -30942.99472111472  250000 0 -19170.47581244904  250000 0 -8921.90277830635  232227.1661023966 0 -60000  216296.9260375522 0 -60000  202018.2515568125 0 -60000  189219.9167941597 0 -60000  177748.4479527209 0 -60000  167466.2824799582 0 -60000  158250.1197834204 0 -60000  149989.4414908582 0 -60000  142585.1882295191 0 -60000  135948.5681760333 0 -60000  232227.1661023966 250000 -60000  216296.9260375522 250000 -60000  202018.2515568125 250000 -60000  189219.9167941597 250000 -60000  177748.4479527209 250000 -60000  167466.2824799582 250000 -60000  158250.1197834204 250000 -60000  149989.4414908582 250000 -60000  142585.1882295191 250000 -60000  135948.5681760333 250000 -60000  130000 244047.61904762 -60000  130000 238095.23809524 -60000  130000 232142.85714286 -60000  130000 226190.47619048 -60000  130000 220238.0952381 -60000  130000 214285.7142857199 -60000  130000 208333.3333333399 -60000  130000 202380.9523809599 -60000  130000 196428.5714285799 -60000  130000 190476.1904761999 -60000  130000 184523.8095238199 -60000  130000 178571.4285714399 -60000  130000 172619.0476190599 -60000  130000 166666.6666666799 -60000  130000 160714.2857142999 -60000  130000 154761.9047619199 -60000  130000 148809.5238095399 -60000  130000 142857.1428571599 -60000  130000 136904.7619047798 -60000  130000 130952.3809523998 -60000  130000 125000.0000000169 -60000  130000 119047.6190476054 -60000  130000 113095.2380
[...]
<PointData  Vectors="sample_prior"> 
<DataArray  type="Float64"  Name="sample_prior"  NumberOfComponents="3" format="ascii">-8.8581515333362951e-03 4.3821286282344175e-03 1.7238349575693236e-03  -7.8965864135218927e-03 2.7926150745596324e-03 8.5554330995043261e-03  -3.4568618471370711e-04 -2.9515305145891416e-03 2.0319238128729670e-03  -8.1207046904446573e-04 6.6833642843766182e-04 -1.0484349733353722e-03  1.1486391036782439e-04 2.7902627870163163e-04 1.8279811177252243e-03  -2.9959924351775891e-03 -7.0640862714654059e-04 7.5924926278746587e-04  5.1372722230974338e-04 -6.3782661868976845e-03 1.6733732453564929e-03  -2.1053019834024506e-03 -1.0916430419430946e-03 2.1153020866093520e-03  8.7283799403306669e-04 -1.6795148550966565e-03 3.3924270824488446e-03  -6.3785483161593389e-05 -1.0283628616674070e-03 2.3319949902682650e-03  4.0637061397905973e-04 -1.3961466835981672e-03 3.4577523711304590e-03  6.5683384804555436e-04 -9.9556773440889258e-04 3.6676200500234952e-03  5.1044791261675422e-04 -8.9301582743227953e-04 2.5726914849136476e-03  8.2768351644331125e-04 -5.1900596831748220e-04 2.8712936082170471e-03  2.9002733588027779e-04 -1.0478957494582324e-04 3.9045228158995312e-03  4.8979251118917103e-04 1.0741728092407085e-03 1.5535511972464468e-03  -2.9191869161846189e-04 -8.9558055378605444e-04 1.0359247179510785e-03  3.3470535439129536e-04 9.7253685347563552e-04 1.5010283849220900e-03  -2.1009892270363534e-03 -1.3118573399742985e-03 2.3753870029428839e-03  2.7665068539343090e-04 7.5562999037900278e-05 2.9765521257474619e-03  -7.9263440762505878e-04 -9.3379810480617861e-04 3.0388384701710738e-03  -5.3277232788776718e-05 9.0390377271523745e-04 3.2306669551286390e-03  9.3767681897351978e-04 1.3874616402845079e-03 1.4795625194762873e-03  5.2290291568617088e-04 6.9954808711132979e-04 9.9332970270494766e-04  -5.4485951964170463e-04 5.4698830910290103e-04 2.9237777721757476e-03  9.8406212950623751e-04 -6.4729764857874390e-04 1.1294617380578401e-03  -1.9065472897586823e-04 3.9694103571502587e-04 1.8368070570328326e-03  -1.5418821948311659e-04 1.3045220613953040e-03 7.5445354416749338e-04  -8.0845720354196462e-05 6.2259766069845234e-04 1.0800221925493726e-03  3.2155129336049594e-04 4.4487015884707730e-04 1.8001726338788264e-03  4.4799512394239429e-04 1.8695719936288394e-04 1.6260998488720152e-03  2.8317755299876934e-03 4.2980460383898586e-04 1.0529557802967796e-03  8.8978142870365349e-04 -6.8003143020718617e-04 1.5597134348515438e-03  -5.3627654033330796e-04 1.9307831778231489e-03 -2.2117773504010926e-05  -2.3108848617855204e-04 1.5845317266273613e-03 -7.9506690951603476e-05  1.0394848775900616e-03 9.2151409420671156e-04 -5.6358826339227269e-04  1.1991230391708496e-03 6.5057749345296355e-04 -8.4198973299665460e-04  1.0707661726919707e-03 2.9542181502298696e-04 3.3803221986106359e-04  1.1266068445846625e-03 -1.1953565269154180e-04 -5.9799435027156525e-04  1.5442983603569877e-03 1.5529601488017801e-04 -3.7275054767339105e-04  8.6199619626176364e-04 -4.6492725577272772e-04 -7.8277081503815753e-04  2.0342586273899991e-03 8.7017069734437167e-04 -4.4344030482587171e-04  1.7300159875096723e-04 1.2733097763873264e-03 -5.9360482136224131e-04  1.8551482843570794e-03 -5.4662558670924305e-06 -5.6360441957605705e-04  2.3554003578730278e-03 -9.0500529487434961e-04 2.6233585847180226e-04  2.0238501320521520e-03 -6.5098401386191841e-04 9.4891004383822317e-04  -1.9613121858909070e-03 4.8852728809669179e-04 4.1465164860536238e-03  -8.4217542133794270e-03 1.8982883475580437e-03 8.7567533694137938e-03  -8.9390705139491579e-03 2.0401433251976352e-04 8.2893721683832636e-03  -1.0032746342643520e-02 -2.3628571314702215e-04 7.1276224435442379e-03  -9.2455623958581090e-03 1.3041018725070766e-04 5.7320895476763636e-03  -8.2331448614065602e-03 4.2487347229463920e-04 5.2011220646388471e-03  -7.4038658139263186e-03 -4.3328616301785151e-04 5.6961612059694793e-03  -6.2513526444873263e-03 -7.9974944840459036e-04 6.2957593204151932e-03  -6.7175566845469412e-03 -7.4774926998591972e-04 7.1640638715792168e-03  -6.5686555031394585e-03 -9.8312569242408579e-04 6.7900840619587498e-03  -5.8565196667188148e-03 -2.2110783266967664e-03 6.6595108074799696e-03  -5.8074427656053199e-03 -1.7184094026444041e-03 5.8380840511911081e-03  -6.0370016795106337e-03 -6.1704934007221967e-04 6.2078620947533447e-03  -5.4027662045283004e-03 -4.8835255955746411e-04 5.6848262172095008e-03  -4.9899101099643859e-03 -5.7201126117879841e-04 4.8251738801155788e-03  -4.2017221556393623e-03 -8.1898774153481551e-04 4.4600646313911023e-03  -3.9999087780268261e-03 -8.5206532852351508e-04 3.9990456705520441e-03  -3.5504983180524455e-03 -1.0434329083935713e-03 2.5321385481957138e-03  -2.7315711211987380e-03 -1.5741444306154727e-03 1.9651239267335515e-03  -2.1599199264260073e-03 -7.9136933269026053e-04 1.8793481704161940e-03  -1.9294816866155765e-03 -1.1914875477507798e-03 2.1933411170372524e-03  -1.9582430050925155e-03 -6.0898804841870479e-04 1.5824420291155334e-03  -1.6606792300320041e-03 -4.4626039825198936e-04 1.4479778470107888e-03  -2.0616748226822065e-03 -8.8844823944667865e-04 2.0590769080254282e-03  -1.5364735951359436e-03 -6.5363031645338161e-04 2.5991899769172936e-03  -1.0072857338849256e-03 -3.1700028591416545e-04 2.5876434011406378e-03  -9.2796117071229102e-04 3.5034470254478149e-06 2.7301820465422824e-03  -1.3083766996742671e-03 2.6537361620090157e-04 3.3171330649707773e-03  -9.6465662837221693e-04 5.6075062308801136e-04 2.0550213208489528e-04  -1.7235575880468694e-03 8.1685766081822654e-05 1.3243918578104475e-03  -1.0797969782571281e-03 7.3572925905267619e-04 2.3102043486709998e-03  -4.1525530935463171e-04 9.9019908839241165e-04 1.8608665016929459e-03  7.3585437279303795e-04 6.4127556122046394e-04 9.0722124915409443e-04  1.5841046629079152e-03 1.2786361566364498e-03 5.7589518841331803e-04  3.2648268739027464e-03 1.8913036149959060e-03 -1.0082179879106792e-04  3.5489005592647207e-03 2.5735358472961491e-03 -3.4467767852507547e-04  4.0937786763708180e-03 1.1242175143486041e-03 -3.2627244703042202e-04  4.2074315983022222e-03 2.0009591620047474e-03 -1.3887077643919608e-03  4.7047753302931440e-03 4.4921419000322683e-04 -1.4980317217633636e-03  3.7420006132046820e-03 5.1722301477545932e-04 -1.2329630327874248e-03  4.6811703517332980e-03 6.4833985282916802e-04 -1.2429127969726733e-03  4.4547134330043979e-03 1.0287265327034362e-04 -2.5137854300069087e-04  2.7768327178580542e-03 6.7425131306133755e-04 -1.7250093933597577e-03  3.5058196901076623e-03 1.0308691848471567e-03 -2.4623937099386446e-03  2.3804901685436264e-03 8.6614666836468763e-04 -2.0617658890667466e-03  1.9988136103517842e-03 2.2465136110502165e-04 2.2765403230814185e-04  6.7827660221819264e-04 -1.8910377162851335e-04 1.3651031275059109e-03  4.0259224883873007e-04 -3.6145536671489391e-04 2.0886579362726053e-03  1.2798306075735395e-03 -8.1652351904016110e-04 2.3485229702010996e-03  9.0444162639979550e-04 -1.8801055754494027e-03 3.7193004442317244e-03  2.0611433419513877e-04 -2.5131528795004298e-03 2.8782385821334768e-03  -2.1036711614608511e-04 -3.3328606110171848e-03 2.6709177459613210e-03  2.7232662235880389e-03 -1.5407730834014282e-03 4.6870140308527471e-04  1.8315793119770400e-03 -7.5283141481847571e-04 9.1117746500572457e-04  1.6963679790224515e-03 6.0108904884309121e-04 9.4823778444846668e-04  1.7460850134032998e-03 -7.9975812833590594e-04 1.1935725260279646e-03  2.5020670808353746e-03 -7.1061396223173344e-04 8.7874183072374960e-04  2.8286070712554637e-03 4.8095855577803289e-04 7.2202092414573669e-04  2.2482152205576672e-03 1.7662626553551313e-03 9.2495299373516690e-04  9.5425885929046749e-04 1.7939497852344985e-03 4.0518375802341827e-04  5.4843737011842997e-04 1.4181182080829585e-03 3.5398490719305213e-04  -1.6968180159847938e-04 1.5064747913064727e-03 1.0160614644426529e-04  -7.0699188918975288e-04 7.2020956825593328e-04 1.1012577960689829e-03  -1.2771991121297782e-03 5.9715236537622503e-04 1.3781680986884159e-03  -1.8205766904067025e-03 5.6969528647210705e-04 7.9200270119468151e-04  -2.4686626179281123e-03 1.7375267536248279e-04 2.9958707980552040e-04  -2.1704882533853404e-03 1.5589174537814570e-03 5.9926461612595740e-04  -2.3000250894212723e-03 1.3453730875284625e-03 2.6889826654440395e-04  -2.4140164399054391e-03 2.0026955801210407e-03 -3.7454989616818089e-05  -1.4104906704804686e-03 2.2815547051086363e-03 -3.3429332486666991e-04  -2.1672873211927282e-03 3.3898637437012047e-03 -6.7132832032860707e-04  -2.0112569284366230e-03 4.6394128381568676e-03 -1.2473374436168735e-03  -2.7027591368392135e-03 5.2089234122790519e-03 -8.6049899899357928e-04  -2.9775649756622678e-03 6.0450641882887554e-03 -7.3175617444045163e-04  -3.5822644828717070e-03 6.6620934757660481e-03 1.0843541953142230e-03  -5.3127064179173660e-03 7.5069350090724574e-03 1.8372392772619743e-03  -7.1983164662395320e-03 7.5714163549269473e-03 1.9059853427809488e-03  -7.5511958266102335e-03 7.0301884970655603e-03 1.7108914018002326e-03  -6.8722022833206655e-03 6.5414857870249405e-03 1.3306961566782069e-04  -7.4902903092983223e-03 5.7820509586855280e-03 -1.9324725448938528e-04  -8.6240424267789856e-03 4.6041364229350819e-03 2.5945604042735410e-03  -8.2806845875059033e-03 5.6915526519465626e-03 3.8126027188607231e-03  -6.4318710001423033e-03 6.4341591886314768e-03 3.7360038692932458e-03  -4.6749420598284144e-03 7.1352290592332467e-03 2.3801250282150118e-03  -3.6752727499651944e-03 8.0147328694775526e-03 1.8155078155469566e-03  -2.9197621217651030e-03 7.5666908049170532e-03 1.9856082715608964e-03  -2.0672554698216799e-03 6.3290269187128616e-03 1.0913279577996551e-03  -1.1452123344772602e-03 6.3879549449678431e-03 -4.5030941398878317e-04  7.7994828360612245e-04 7.2714232633519348e-03 -4.1950011632633214e-04  1.1525038121559894e-03 6.9255529940950604e-03 1.2541049523006823e-03  1.1734015085702839e-03 5.5954131024760585e-03 1.9239993855223628e-03  4.6903221053966787e-04 5.5815085968598461e-03 2.7538451007799595e-03  -1.4604912146320432e-03 5.8142991261760672e-03 4.5066379208128166e-03  -3.0444765411772119e-03 6.4077997591058464e-03 5.5338940752544504e-03  -4.2582377453884235e-03 6.7133212055906577e-03 5.3945535810445873e-03  -5.6269154795932997e-03 6.7416187784448819e-03 4.4942660909487227e-03  -7.1577433702903707e-03 5.4221090808423428e-03 2.4746318824151428e-03  -7.2057984246235544e-03 3.5269060872529547e-03 -1.2010757980307313e-04  -8.5121482518789402e-03 2.3423069560642071e-03 -2.8530960564708300e-03  -9.9631825081193271e-03 6.8128638081490470e-04 -4.3194184921748827e-03  -1.0206560808375276e-02 -5.3031351554138002e-04 -4.5280979955045131e-03  -9.3451243901452770e-03 1.0888907589378211e-04 -2.8057625509384401e-03  -8.1307398224712991e-03 7.8656641891692160e-04 -2.0054259509327830e-03  -7.3730789482242499e-03 3.4545335486268450e-04 -6.7805021793444103e-04  -5.7907627371776536e-03 -2.3478694411076329e-04 2.0478049056161262e-03  -4.9365120812440546e-03 -4.3618584735019805e-04 4.2520047308444060e-03  -3.9273667354732845e-03 -3.1732084067754006e-04 5.7566380736935154e-03  -2.5280616544659743e-03 1.1291388421906026e-03 5.5227741148234097e-03  -8.4884642391786652e-04 3.1306066690040850e-03 5.2707208110782250e-03  -3.6613401843636550e-04 3.1987094213504460e-03 5.2502025708962259e-03  -2.0442217423445589e-04 3.8190888259556086e-03 5.0721268486567123e-03  -5.7637687810294439e-04 2.6347605495117363e-03 4.7366311001933309e-03  -6.2327263988056739e-04 3.5431834142728561e-03 5.1831145350141666e-03  -1.4032118334864022e-03 4.4362237441528942e-03 5.4863349209057256e-03  -8.6893575847471320e-04 4.6753771181499097e-03 5.5774414566985581e-03  -8.6899245887316610e-04 4.0150706773546454e-03 7.0037669869406401e-03  -2.3728742792338080e-03 4.4029963869975080e-03 8.6952857094613131e-03  -3.5122585678112671e-03 5.7452763236701069e-03 9.8636074131733878e-03  -5.3069177280881509e-03 4.9915193558281784e-03 9.4007927573150126e-03  -6.0379646815962055e-03 5.2731274391728585e-03 9.2532581499802577e-03  -7.2070365993324344e-03 5.2706604921859707e-03 7.8648096087415419e-03  -7.2352076443272361e-03 5.8416091935128553e-03 7.5008567302784794e-03  -7.3677654246542120e-03 4.5505203349402740e-03 5.6620500287166498e-03  -8.3905046370625555e-03 3.2713388617075997e-03 4.4197217683129043e-03  -9.3204919211336938e-03 3.1415552059404412e-03 3.8958680451529806e-03  -1.1666937333667460e-02 3.4228987862645441e-03 4.7670975151358147e-03  -1.1850949710016618e-02 3.7628660878170363e-03 5.7875318829986927e-03  -1.1743230959748075e-02 2.9428065429705753e-03 7.6263930116999973e-03  -9.9795159717617314e-03 2.6077950216329125e-03 8.5024620083234588e-03  2.3571208550583846e-03 -5.1213926314610668e-04 1.0503564973226604e-03  1.8153892369242983e-03 -1.7914961097998137e-04 1.6121699411838614e-03  1.2147714747209159e-03 1.8624388821803772e-04 1.6817586626938772e-03  1.4587949960570416e-03 3.1185741634501713e-04 1.1199661659634656e-03  2.2020024973415930e-03 -2.6244856132279091e-04 1.4255515470772404e-03  2.2907507588863989e-03 -5.9488064181557844e-04 6.4081911662921512e-04  2.1806516947123367e-03 -9.4435691989544165e-04 3.4706365499951355e-04  1.4642378085832719e-03 6.5543904202621230e-05 -1.6018742029196039e-04  1.7151869034483505e-03 7.6753804865167352e-04 -3.8983704867364126e-04  1.8055705220623023e-03 2.8718426797092145e-04 4.0460113200273587e-04  1.7190865706857277e-03 4.9393370058033517e-04 2.2694521804185954e-04  1.0356276016077891e-03 8.2143905327513645e-04 2.8755087939363058e-04  1.2213140558424720e-03 1.4834064761645156e-03 -3.2437715271808361e-04  1.1004545817533959e-03 1.4181580337345920e-03 -9.4730983499625684e-04  1.0663069001347497e-03 1.0686511693638436e-03 -7.6549366872256811e-04  7.0295748259377672e-04 7.3179869201880476e-04 -6.5607719566184407e-04  6.0761706909405390e-04 1.3863539798863388e-03 -8.3706626063762587e-04  6.5220228530201351e-04 1.6128003161487128e-03 -7.9835675361536072e-04  1.3160468409604816e-04 1.4719790908998222e-03 -9.4737094169089497e-04  -1.6955519319891257e-04 2.3163497990700242e-03 -8.7704020495634936e-04  -6.5094974231689519e-04 3.3891383037288896e-03 -1.1250351475375715e-03  -9.1007437277239116e-04 3.2267338095718469e-03 -1.2859937053146793e-03  -7.0521255961605118e-04 2.4415840791406729e-03 -8.4709384950239035e-04  -9.1347381095731512e-04 1.6297598058825156e-03 -1.2913562970526555e-03  -7.0334062939921840e-04 1.0308740605390828e-03 -7.1757515024661357e-04  -4.3807959165395474e-04 7.5800162635720342e-04 -3.9469382584649432e-04  -4.3210421671570527e-04 1.1375913252523590e-03 1.1203634392697755e-04  1.1141007146633677e-04 1.6075433571531637e-03 4.1110198633024722e-04  3.1449302310426655e-05 1.1743387496407675e-03 2.4887457718088366e-04  3.1413750595915769e-04 9.2037178017251157e-04 5.7533357086460453e-04  3.7495278171396153e-04 1.5100748608024572e-03 8.7229252630166652e-04  4.0715564795594273e-04 1.2911706771182949e-03 9.6342513614726410e-04  -1.3684012071807046e-05 6.3314762733910138e-04 8.7649624556845310e-04  -6.4513433847631220e-04 7.2499572687133784e-04 1.6040924704640777e-03  -7.2269868470255054e-04 1.5603114771490099e-04 1.4408187965375774e-03  4.6637208489409359e-05 -2.1733728109253159e-04 1.9170865393000312e-03  2.0925572864574128e-04 -1.0094765250521448e-03 1.5979656602501439e-03  2.4687270892892970e-04 -1.5718739406345226e-03 2.1269674942717264e-03  5.2173660830392087e-04 -2.0714828007273203e-03 2.6421615750307497e-03  4.5291856544094712e-04 -2.4082501818776811e-03 3.2658773596652528e-03  5.1963457565702698e-04 -2.5335773861559097e-03 3.2499104849604199e-03  6.1511137629396062e-04 -2.1181862600189150e-03 2.9697369314884464e-03  8.7889273139499539e-04 -1.8746772571065777e-03 2.3288668977815129e-03  3.3372118559585345e-04 -2.2943200245909051e-03 1.4747206834331934e-03  -4.6928812138693121e-04 -1.9933129128912029e-03 9.6841550318420484e-04  -9.1762303754790522e-04 -2.0965136039921097e-03 9.8750079149584552e-04  -1.5676333950461745e-03 -2.0039956116667096e-03 1.3888355769827007e-03  -2.3772701324029648e-03 -1.7890890508350751e-03 2.6435836750265482e-03  -2.2069614184887110e-03 -2.2212410540591895e-03 2.8701525613233918e-03  -2.7001036389506321e-03 -2.2741684511615548e-03 2.9121849024155593e-03  -2.9198914458263624e-03 -2.2856427495690432e-03 2.7379020426333673e-03  -3.1625031035511664e-03 -2.0686220111767817e-03 2.5186307408539867e-03  -3.1436756641014161e-03 -1.9920051204667089e-03 2.7569867539883912e-03  -2.6684761060390169e-03 -1.8777985283868854e-03 2.5213203736445286e-03  -1.7457907163498819e-03 -2.1268450979951368e-03 2.6108659430389087e-03  -1.4638848494263825e-03 -1.5837862552676991e-03 2.6889202445961385e-03  -1.1226253686914167e-03 -1.1968893622396287e-03 2.5736519398031196e-03  -1.9766554162828158e-03 -1.0898008000251932e-03 2.5527027348012754e-03  -1.9581751618143210e-03 -5.6000117416299259e-04 2.9177088933007422e-03  -1.6623491451518281e-03 -5.0106595881209794e-04 2.7511059134422851e-03  -1.8318083732529495e-03 -2.1692050527662767e-04 2.6288760162093633e-03  -1.6515309899124836e-03 2.0272112864897217e-04 3.3633965081971912e-03  -1.4881919893141992e-03 5.7823426052621937e-04 3.7662024417519642e-03  -1.6931353945644654e-03 6.1557467633878676e-04 3.9051510192134519e-03  -1.2296036037129237e-03 -2.3195736630634149e-04 -5.9231026576481746e-04  1.9783829185485594e-04 -2.2042376192769847e-03 8.7975415354044626e-04  -6.8435176624132780e-04 -2.4432249881887439e-03 2.1789533655251496e-03  -1.5440855923044283e-03 -1.7128995820347144e-03 2.6249577636093691e-03  -1.2779097882605046e-03 -1.3283010780278453e-03 2.8051723369597516e-03  7.0004707066437548e-04 1.2188224205633351e-03 1.4276947866042598e-03  3.1135247892243755e-04 2.7254914901218633e-03 5.7633924924561442e-04  2.5349484458733517e-03 1.8930173597644288e-03 -6.0123796796091196e-04  2.6552818567837015e-03 8.6839092113834022e-04 -2.7789534707351377e-03  3.1067536525132894e-03 -5.0910704511297961e-04 -2.1590800907708187e-03  1.7642679189295676e-03 -1.1415078153770315e-03 -1.3186485450059108e-03  2.4045746887958802e-03 -6.9360991635017757e-04 -1.0105659031935998e-04  1.8120639175014362e-03 -6.1225978002254653e-04 -2.3448576302264511e-04  -9.7199702569343419e-04 -7.1556993225651590e-04 -1.6954473014917687e-03  -9.0048372921612747e-04 -2.9652773600181192e-03 -1.2230585369357437e-03  6.0408707481761901e-04 -4.2340380755270463e-03 1.6821166683442504e-03  1.1776843700667017e-03 -4.6028963017895556e-03 2.0832972795230137e-03  9.0962349602125687e-04 -3.5830194846098117e-03 3.6076452542273163e-03  3.3899755013460693e-04 -2.5927138903246521e-03 2.9805204020665996e-03  -5.9691296995493918e-04 -2.0003425060031175e-03 3.1193494442964070e-03  5.9682002236744283e-04 -3.9031940719116516e-03 1.3652669801344139e-03  7.4658931158426379e-04 -3.3602413097377814e-03 1.1216263748512760e-03  1.3863688342080577e-03 -2.5808558113952274e-03 2.3148953658334802e-03  1.0141158637080362e-03 -2.4818018995040637e-03 2.0860244197906433e-03  1.3982414871690867e-03 -1.8098751269519204e-03 1.7050570756601308e-03  9.2786118305413314e-04 -1.5437919748036745e-03 2.3815737598950697e-03  2.3282601878094454e-04 -1.2629980765680496e-03 1.5572388225197796e-03  6.4459235565951999e-04 -1.3574259955805418e-03 5.2089953859662998e-04  2.6603261759079321e-04 -2.6240545701126217e-04 3.1615031037115436e-04  1.7761825563786771e-05 -3.3935299552019299e-04 7.5723075879251581e-04  -2.5572286424265490e-03 -1.3364652234284964e-03 3.4005012102381518e-03  -1.5097557169351970e-03 -1.0815820597810429e-03 3.1283178828454992e-03  -4.6034381415835813e-04 5.7465942650997929e-04 3.6949434029321941e-03  -3.1618452189915368e-04 -4.9212614704410016e-04 3.2198961059843696e-03  -6.9722516526376285e-05 -2.0886577583037014e-03 3.0454288076847465e-03  -8.6549447261339402e-04 -1.1160508498699359e-03 2.1861810942477486e-03  -2.2443098251250185e-03 -2.3392055081395773e-03 1.1119487720072001e-03  -2.5711857135707790e-03 -2.1418641338057632e-03 1.7689042589070227e-03  -3.1967299176417809e-03 -1.5520512073640171e-03 9.7137814435114991e-04  -3.5691258799377891e-03 -1.7363915180611156e-03 3.3451408590310679e-04 