<?xml version="1.0"?>
<VTKFile type="UnstructuredGrid"  version="0.1"  >
<UnstructuredGrid>
<Piece  NumberOfPoints="3594" NumberOfCells="14547">
<Points>
<DataArray  type="Float64"  NumberOfComponents="3"  format="ascii">0 0 -4000  0 250000 -4000  250000 0 0  250000 250000 0  135000 0 -60000  135000 250000 -60000  250000 0 -60000  250000 250000 -60000  65308.5 173604.8 0  78441.2 185529.2 0  65707.89999999999 168017.6 0  73555.60000000001 174095.8 0  61257.8 157386.9 0  65291.6 154352.5 0  82112.3 172814.3 0  58804.1 138685.6 0  106822.8 190893.8 0  60152.4 136426.2 0  144960.9 230041.9 0  88660.10000000001 163931.9 0  134829.2 208246.3 0  82409 149993.8 0  65214.4 127836 0  67249.7 122418.9 0  91916.7 141284.3 0  125498.1 99698.5 0  111195.9 162013.4 0  92905.39999999999 131283.2 0  77176.5 109747.4 0  90809.3 124059.5 0  107806.1 141615.9 0  104439.5 126126.3 0  137051.8 160541 0  118095 132800.4 0  82238.39999999999 90851.5 0  84123.2 92291 0  98197.5 105309.4 0  105163 104713.8 0  154799.8 153672.9 0  133655.9 122823.1 0  111467 94557.3 0  106995.1 77971.8 0  149450.7 123239.8 0  192061 157764 0  133903.2 45232 0  140000 0 0  136000 250000 0  9714.285714284615 250000 -3714.285714285747  19428.57142857481 250000 -3428.571428571329  29142.85714285597 250000 -3142.857142857177  38857.14285713715 250000 -2857.142857143025  48571.42857141832 250000 -2571.428571428873  58285.71428569948 250000 -2285.714285714721  67999.99999998066 250000 -2000.000000000569  77714.28571426184 250000 -1714.285714286416  87428.571428543 250000 -1428.571428572265  97142.85714282417 250000 -1142.857142858113  106857.1428571053 250000 -857.1428571439606  116571.4285713865 250000 -571.4285714298085  126285.7142856677 250000 -285.7142857156564  250000 240000.0000000016 0  250000 230000.0000000032 0  250000 220000.0000000048 0  250000 210000.0000000064 0  250000 200000.0000000079 0  250000 190000.0000000095 0  250000 180000.0000000111 0  250000 170000.0000000127 0  250000 160000.0000000143 0  250000 150000.0000000159 0  250000 140000.0000000175 0  250000 130000.0000000191 0  250000 119999.9999999916 0  250000 109999.9999999825 0  250000 99999.99999998408 0  250000 89999.99999998568 0  250000 79999.99999998725 0  250000 69999.99999998885 0  250000 59999.99999999045 0  250000 49999.99999999205 0  250000 39999.99999999366 0  250000 29999.99999999526 0  250000 19999.9999999968 0  250000 9999.999999998399 0  130000 0 -285.714285714285  120000 0 -571.4285714285701  110000.0000000001 0 -857.1428571428546  100000.0000000001 0 -1142.857142857139  90000.00000000017 0 -1428.571428571424  80000.0000000002 0 -1714.285714285709  70000.00000000025 0 -1999.999999999993  60000.00000000026 0 -2285.714285714278  50000.00000000023 0 -2571.428571428565  40000.00000000019 0 -2857.142857142852  30000.00000000015 0 -3142.857142857139  20000.00000000009 0 -3428.571428571426  10000.00000000004 0 -3714.285714285713  0 9999.999999998096 -4000  0 19999.99999999726 -4000  0 29999.99999999545 -4000  0 39999.99999999275 -4000  0 49999.9999999912 -4000  0 59999.99999998965 -4000  0 69999.99999998808 -4000  0 79999.99999998655 -4000  0 89999.99999998501 -4000  0 99999.99999998347 -4000  0 109999.9999999819 -4000  0 119999.9999999804 -4000  0 130000.0000000079 -4000  0 140000.000000017 -4000  0 150000.0000000155 -4000  0 160000.000000014 -4000  0 170000.0000000124 -4000  0 180000.0000000109 -4000  0 190000.0000000093 -4000  0 200000.0000000078 -4000  0 210000.0000000062 -4000  0 220000.0000000047 -4000  0 230000.0000000031 -4000  0 240000.0000000016 -4000  134615.5786831678 8376.221222376078 0  129135.8381374389 16690.61556165003 0  123693.3119097638 25029.34528065769 0  118458.7304757098 33499.41630675747 0  114183.5561631282 42453.40693221996 0  117152.9012549134 51656.5775220433 0  109640.5189223821 56772.26946740811 0  99783.22349336625 58163.79074226946 0  89906.64048415456 59427.041153887 0  80231.83368741472 61714.93090982783 0  73457.07599492084 68333.04562829909 0  74666.1562536891 78126.62096439983 0  77477.57171300898 87678.05180735435 0  78461.83411646895 97534.63399308435 0  75049.04009726809 106816.2708870931 0  69538.50964765088 115103.6313494232 0  63598.75337311435 123095.8011052612 0  58118.08704720287 131402.6075281692 0  54672.56885839759 140685.5429709587 0  54507.01644649181 150612.6283068675 0  56360.01451579022 160386.8607035369 0  59277.85033353963 169905.2699317088 0  62638.60576621335 179274.2426304358 0  68212.99295126265 187459.3754999009 0  75814.40529046141 193858.3467082375 0  84761.00503602097 198204.6515231062 0  94061.92665129391 201734.182040823 0  103676.4565927747 204325.1412130333 0  112974.540309108 207830.3235759034 0  118972.4630267572 215380.3369922852 0  120264.8170507578 225241.997356352 0  123444.1757132735 234565.2722630062 0  129527.245366261 242435.1534677757 0  250000 250000 -9999.999999997535  250000 250000 -19999.99999997662  250000 250000 -29999.9999999377  250000 250000 -39999.99999995799  250000 250000 -49999.999999979  250000 240000.0000000016 -60000  250000 230000.0000000032 -60000  250000 220000.0000000048 -60000  250000 210000.0000000064 -60000  250000 200000.0000000079 -60000  250000 190000.0000000095 -60000  250000 180000.0000000111 -60000  250000 170000.0000000127 -60000  250000 160000.0000000143 -60000  250000 150000.0000000159 -60000  250000 140000.0000000175 -60000  250000 130000.0000000191 -60000  250000 119999.9999999916 -60000  250000 109999.9999999825 -60000  250000 99999.99999998408 -60000  250000 89999.99999998568 -60000  250000 79999.99999998725 -60000  250000 69999.99999998885 -60000  250000 59999.99999999045 -60000  250000 49999.99999999205 -60000  250000 39999.99999999366 -60000  250000 29999.99999999526 -60000  250000 19999.9999999968 -60000  250000 9999.999999998399 -60000  250000 0 -49999.99999997466  250000 0 -39999.99999999574  250000 0 -30000.00000007532  250000 0 -20000.00000005069  250000 0 -10000.00000002534  240416.6666666667 0 -60000  230833.3333333333 0 -60000  221250 0 -60000  211666.6666666667 0 -60000  202083.3333333333 0 -60000  192500 0 -60000  182916.6666666667 0 -60000  173333.3333333333 0 -60000  163750 0 -60000  154166.6666666667 0 -60000  144583.3333333333 0 -60000  240416.6666666667 250000 -60000  230833.3333333333 250000 -60000  221250 250000 -60000  211666.6666666667 250000 -60000  202083.3333333333 250000 -60000  192500 250000 -60000  182916.6666666667 250000 -60000  173333.3333333333 250000 -60000  163750 250000 -60000  154166.6666666667 250000 -60000  144583.3333333333 250000 -60000  135000 240000.0000000016 -60000  135000 230000.0000000032 -60000  135000 220000.0000000048 -60000  135000 210000.0000000064 -60000  135000 200000.0000000079 -60000  135000 190000.0000000095 -60000  135000 180000.0000000111 -60000  135000 170000.0000000127 -60000  135000 160000.0000000143 -60000  135000 150000.0000000159 -60000  135000 140000.0000000175 -60000  135000 130000.0000000191 -60000  135000 119999.9999999916 -60000  135000 109999.9999999825 -60000  135000 99999.99999998408 -60000  135000 89999.99999998568 -60000  135000 79999.99999998725 -60000  135000 69999.99999998885 -60000  135000 59999.99999999045 -60000  135000 49999.99999999205 -60000  135000 39999.99999999366 -60000  135000 29999.99999999526 -60000  135000 19999.9999999968 -60000  135000 9999.999999998399 -60000  9760.266420117418 0 -5952.053284023483  19520.53309387125 0 -7904.10661877425  29307.1102415074 0 -9718.421407375839  39104.7333719938 0 -11473.30036109216  48875.83924532436 0 -13369.19882213981  58571.87012930932 0 -15613.67939664691  68124.11986543986 0 -18408.53002372226  77527.76485865096 0 -21667.33907869995  86719.09466349281 0 -25482.98540480309  95631.92793098884 0 -29908.59492259344  104180.5528547143 0 -35003.66989024555  112449.6580983703 0 -40542.62450796275  120509.52686276 0 -46382.42388125008  127994.6878848568 0 -52930.54997290741  9760.266420117418 250000 -5952.053284023483  19520.53309387125 249999.9999999999 -7904.10661877425  29307.1102415074 250000 -9718.421407375839  39104.7333719938 250000 -11473.30036109216  48875.83924532436 250000 -13369.19882213981  58571.87012930932 250000 -15613.67939664691  68124.11986543986 250000 -18408.53002372226  77527.76485865096 250000 -21667.33907869995  86719.09466349281 250000 -25482.98540480309  95631.92793098884 250000 -29908.59492259344  104180.5528547143 250000 -35003.66989024555  112449.6580983703 250000 -40542.62450796275  120509.52686276 250000 -46382.42388125008  127994.6878848568 250000 -52930.54997290741  145499.999999982 250000 0  154999.999999964 250000 0  164499.999999946 250000 0  173999.999999928 250000 0  183499.99999991 250000 0  192999.9999998977 250000 0  202500.00000009 250000 0  212000.000000072 250000 0  221500.000000054 250000 0  231000.000000036 250000 0  240500.000000018 250000 0  240000.0000001065 0 0  230000.0000002129 0 0  220000.0000003194 0 0  210000.0000004258 0 0  200000.0000005323 0 0  190000.0000006387 0 0  180000.0000006325 0 0  170000.0000004744 0 0  160000.0000003162 0 0  150000.0000001582 0 0  81541.63335874674 35498.13281562441 -1158.202651726381  46004.68664141578 194254.3443995834 -2060.726341037222  32687.99629987251 175105.6839569158 -2219.415882311186  36663.59507600099 63079.34846719183 -2167.093431592842  52002.09530018299 134928.3526843132 -266.7613614382204  59599.13772899003 109177.3480854863 -691.4602217251189  13806.90843888927 84795.87142461444 -3288.608480833754  42042.1003123136 65482.76889364541 -1784.344992951069  85917.78356508871 211210.3489857896 -1084.187284676976  26344.15959288631 140617.4121347481 -2112.437398247788  49350.86723141051 36336.78604214006 -2272.704599832591  21702.40331646254 119880.0690882354 -2466.437976166102  57313.56589490068 220733.4025395545 -2090.49117424689  28866.73893404105 218351.493928639 -3037.311471166797  64300.33793173476 48969.94193502321 -1793.328299662734  52482.25996720623 28090.02703717845 -2196.191483315934  63095.9704402233 54899.2587271606 -1627.600015239288
[...]
<PointData  Vectors="sample_post"> 
<DataArray  type="Float64"  Name="sample_post"  NumberOfComponents="3" format="ascii">3.3928850787022075e-01 1.9075333998223241e+00 1.0027603528859685e+00  4.6973962535838221e-01 8.2791706805118204e-01 1.7374799675078550e-01  6.5979995865916374e-01 1.7774298690775917e-01 1.7621021625034330e-01  -8.1645764648964989e-02 3.6765407418825830e-01 1.0909559827287760e-01  -1.7391227172645657e-01 1.1297344757167940e-01 2.9343124313801910e-02  1.5756801796016928e-01 5.5699128958113830e-01 3.8350164598951259e-01  4.9105984207824177e-01 -8.6503097373562945e-02 -2.7899768808420794e-01  5.2535022873899440e-01 -4.1464896528815759e-01 3.8077438329264068e-01  2.3663606808358448e-01 -4.4040047236314461e-01 4.5367500666101561e-02  4.2282553758507542e-02 -5.0330915287060034e-03 4.7374414050736662e-02  2.8165860986121338e-01 -3.2978241703187205e-01 -1.0330638009384954e-01  1.8239789649259056e-01 -1.0482601263796769e-01 -4.7840468166819819e-02  -5.6037557237608986e-03 2.0493921069005851e-02 -2.0725428464348652e-01  1.0995063424129595e-01 -1.6330339751794301e-01 8.8615142005194492e-02  2.1410301224327119e-01 1.3820486357692302e-01 1.5954701132497393e-01  -2.5328590316590904e-01 1.5072816421755708e-01 -1.0641947817663605e-01  -4.9906699534645708e-03 2.0446072463063694e-02 2.7767178749060168e-02  -1.6623889539610381e-01 9.2221867135626717e-02 -1.2261765250445364e-01  4.0845355434929682e-02 -1.9414584978986910e-01 -1.5446567608234879e-01  4.4318898790424655e-01 -2.2734934921375096e-02 -7.9290342604505154e-02  -1.5998921318074250e-01 -6.0621706185464081e-04 9.4147124397481602e-02  5.9810284177895190e-02 -3.0490506393508976e-01 -7.6300465416148433e-02  -1.3217648927950643e-01 1.6589425881208869e-01 6.4898077380715721e-02  9.5984947295913475e-02 8.7548482775065273e-02 1.1769118738074884e-01  7.4724666188253408e-02 -8.8191564535721689e-02 -1.5358842010733637e-01  -4.5105557133030050e-02 -2.1425082731085631e-02 9.7812439997461309e-02  2.9136554447344548e-01 -5.6149788282357588e-02 -1.2866756337683510e-01  -8.8119795951910648e-02 -1.0527347038475979e-01 -2.8624751582111529e-02  1.4828525647940219e-01 2.7456176666921683e-01 1.6383052069504056e-01  1.1109385847680681e-01 -9.6848204574592686e-02 1.3774572963176143e-01  -2.6480236589358191e-01 6.1611503328930874e-02 6.9824739608114687e-04  4.6638285030840554e-02 -4.5465418074718759e-02 2.1474734092012585e-01  2.0387734138890601e-01 -2.1890317164367218e-01 1.9105295261350422e-02  -1.7629766069580305e-01 2.0656668204633744e-01 -2.4373004767278657e-02  -1.3936444516738525e-01 -1.0657481734094607e-01 2.4344418233959422e-01  -1.5702696584306000e-01 -1.4108224836374011e-01 2.1420771634744637e-01  2.3340394601907180e-01 -5.7175817566590292e-02 7.2021862079143430e-03  6.4767503642728042e-02 -2.6074677212030462e-01 1.9561996487500946e-01  2.0231628219973063e-01 3.2428269337986870e-01 4.3009878523752612e-02  -1.8428693905461094e-01 2.2514490210695562e-01 7.6992335620426761e-02  5.5566278585130247e-02 -7.7436163686073325e-02 -2.9136817275438355e-02  8.1505933142201364e-02 -8.2034279107848052e-02 1.6930199845325504e-02  -6.0651224361142002e-02 4.0741885739288247e-02 9.5403578949063909e-04  -2.1624339507554300e-02 8.6102149449358636e-02 -1.3115417767327800e-01  2.0984060034062396e-01 -8.6769682249272631e-02 -1.0635106700460788e-01  5.4320421376649253e-01 3.3011883272198789e-01 5.0947212991900526e-01  3.3791356077660173e-01 -3.8531339659381297e-01 -2.0180146327190657e-01  1.8730741391624697e-01 -1.8697628959387691e-01 3.9086688835258993e-01  1.6870850435188423e-01 -2.7906129914687727e-01 1.9652672278188574e-01  6.5546299967672680e-02 -3.7366643095224644e-01 -1.5884745899976943e-01  3.2540945478306754e-01 9.3564771574559183e-02 2.6888066641141850e-02  2.4047008584592564e-01 2.7410862618784693e-01 1.8314903010229411e-01  1.3840030494777730e-01 6.5924555959801692e-02 1.4139509625681859e-01  1.4209954587874540e-01 8.3861850416108760e-02 1.5859532204687046e-01  -7.0857308613182221e-02 -4.5135214253384592e-01 1.4664540564448933e-01  -1.4371051843278962e-01 -9.5632079949918930e-02 2.3860987564372327e-01  -3.6363071976179479e-01 2.7091574289913001e-01 -1.9475209301238541e-01  -4.4679713327907189e-01 6.2573162355915035e-01 6.4651154753808859e-01  2.2227888775401574e-02 4.9928538689562180e-02 2.8629919321152036e-01  1.4930586508941968e-01 -6.1425976438140026e-03 -7.0514926177347351e-02  2.2082458615949144e-01 3.0215190720220331e-01 1.0678519314018123e-01  1.0690907843090666e-01 2.2810080760186664e-03 3.5967423595417040e-02  1.1123332983390373e-01 -6.5206320198517324e-03 1.8480281190993764e-01  3.7616554766280291e-01 1.6173970601843315e-01 2.8550400827257927e-01  1.4234075291778114e-01 9.3172326975511144e-02 1.8654698393377264e-01  1.1836801126205181e-01 3.7355406565929228e-02 -1.5405586921840453e-01  -1.4248198482706995e-01 -2.7974283009479095e-01 -3.0687985769199572e-01  3.9245039271435078e-01 -1.1980983203350327e-01 -4.0555738345152825e-01  8.4507624793849517e-02 3.7410703988381803e-02 -2.8951836276565467e-02  7.8486045350294811e-02 -1.0540896728436756e-01 -5.8726132878363979e-02  2.6453133755243108e-01 1.9653812061934384e-01 -3.8934609368016510e-01  3.4465445340761153e-02 3.3420774296941269e-01 -3.6036143952470656e-01  -1.4110367206945629e-01 5.2810154912873615e-02 -6.9121074466010124e-02  2.0270156545356946e-01 -1.0313084634237690e-02 -3.3898234020976842e-01  1.3966292392005322e-01 -2.7261398412808117e-02 7.6154260724100337e-02  -5.3292315427637939e-02 -1.1349432813853843e-02 1.8232877056518423e-01  3.6898659484484071e-02 1.5269679316409787e-01 1.2802436542241646e-02  1.2366041394212078e-01 -2.4137682940882865e-01 2.8726968344153420e-01  1.7541455183805699e-01 8.4103810923168598e-02 6.3317464252388184e-02  1.6640078351253684e-01 2.1008946115709759e-01 7.2687153658771682e-03  1.4468389727865469e-01 1.6409363934111404e-01 -1.1347973563241140e-01  -2.2936614013358422e-01 9.4770409608466541e-02 7.5374871839646682e-02  -2.8257862606628997e-01 -2.0534842323955807e-01 4.7186119828632106e-02  4.5193794042639246e-01 -1.9351756475541371e-02 -1.0090730548508282e-01  3.7419219861869074e-01 7.6726777385980827e-02 -1.5100544214248030e-04  1.0394159653874535e-01 2.3242112179606911e-01 -2.6564820136763506e-01  1.7020006955119485e-01 -1.5519561542015720e-01 -4.6072878422630009e-01  3.7651996545116645e-01 5.1487630982310725e-02 -2.5371528272496369e-01  2.8130317351273026e-01 1.1710684202367802e-01 -3.5052513542487890e-01  5.5019598938585268e-01 -2.9849833054034703e-02 -1.5045169702140301e-01  -1.6285830965363443e-01 2.5251339431204339e-01 -3.9511193048278009e-01  -2.5206702464221015e-01 -1.6429439974100823e-01 1.2741389271380135e-01  -6.0531821977996426e-02 -6.6995362068055222e-03 1.1695077912531578e-03  -1.5210288680122655e-01 -2.5649155726522238e-01 -1.1286099263242257e-01  4.8290366453994565e-01 -3.4680586841064009e-01 -4.1001603200184872e-01  5.2813029078512608e-01 -4.6658123960570293e-02 -1.7388101286019395e-01  4.3680417444028585e-01 6.2070850844291825e-01 6.4987754258274555e-01  3.3181248855487386e-02 5.1294345722900070e-01 3.9007465203208586e-01  -1.3125033066748115e+00 2.7334337145589732e-01 2.7747373052329216e-01  -5.8629644261137603e-01 1.5913685437050870e-01 -6.4804231712853955e-01  3.5127671560311235e-01 -4.7876217350248246e-01 -6.6714860395835240e-01  6.8539616652253310e-01 -6.5108124994365546e-01 -5.6360440170450066e-01  1.2485525369106667e+00 -1.8187570173377121e-01 -2.5566434540459620e-01  4.1558642870046331e-01 -7.2304498100184755e-01 -4.1645999019116381e-01  -1.1498080882083761e-03 -1.7984271344042424e-01 -5.2097099357725461e-02  -3.1956393760501334e-01 -1.1789182172499344e+00 -7.8263392309966096e-02  9.9389879953407437e-02 -2.6074674443236506e-01 -1.4391899314336021e-01  -9.7186198283957213e-03 5.6261046435018769e-01 -2.6928912809929961e-01  -5.0050371279959127e-01 3.6658556099186508e-02 -4.0146976910202747e-01  -4.2598880207119577e-01 6.1302375459446212e-01 2.8881779924057067e-02  -2.2989153642975735e-01 2.2853819696972116e-01 -3.9983883785926283e-01  -1.5493294259634313e-01 -3.5057484892637142e-01 5.1127591824502039e-01  -5.1846007336884925e-01 1.4445964455451035e-01 1.4587417003829523e-01  -5.5525132865769677e-01 3.4030484235965625e-01 1.0366425829410768e-02  -5.1443879027726669e-01 -6.0839579264371002e-01 -6.1332005388147670e-01  -5.6528070526423002e-01 2.5641632699534278e-01 -4.1697150704561403e-01  -7.3939121711187761e-01 -1.1647691761476660e+00 -6.7038541929112228e-01  -9.0447813823677736e-01 -1.2018898480050249e+00 -9.6516152621025098e-01  2.5503549453833591e-01 -9.8340667944227467e-02 -2.2175794154901457e-01  3.1617172968607993e-01 4.7327427212498963e-01 -2.9372499597571750e-01  2.5872194172234425e-01 3.5380183200544091e-01 -4.0246466763701777e-01  3.1523888956939422e-01 1.9966732588885280e-01 2.4413321691798651e-01  3.4849939977523497e-01 -1.6717662166553671e-01 8.5786001886577409e-02  1.6625823153707048e-01 -8.4342575217229862e-02 8.1006400737979087e-02  -2.4012400187477995e-01 -4.9693480634445751e-02 -1.3871420811283613e-01  8.6414529978714391e-02 1.3114887480095649e-02 -1.5887113445339549e-01  4.9171629957828020e-02 9.0175529648658811e-02 -1.8749717891623163e-01  -1.1009595628050600e-01 1.8265075708445758e-01 -7.9378843074788250e-02  1.1532144928346216e-01 -8.4031278268917459e-02 2.2496098253995778e-01  -5.9917303575618586e-02 -7.8073808569133207e-02 1.1245605221516226e-01  2.0344189901924931e-01 -1.3981307904771323e-01 -1.8634648880622978e-01  1.3200591180221197e-01 -2.1232230863280525e-02 -2.8906864260920750e-01  -1.0193681416403273e-01 1.0423856842934405e-01 -1.8133156740185903e-02  -8.9881177845103286e-02 1.8947057699440939e-02 1.2799174983715253e-01  -1.1652007226110277e-01 -3.2351295308126311e-02 8.0214872650310146e-02  1.4962119995831455e-01 1.4188834929496755e-01 6.5418557041728317e-02  -1.6289574138791255e-01 -6.6758931681762640e-02 2.5555709783849101e-01  1.8468024273992573e-01 4.7081320828877171e-02 1.5675357335655310e-01  -1.2921035614495136e-02 1.7736696018142412e-01 -5.8167047739246414e-02  -1.6378252421054645e-01 -4.7496349671475140e-03 -5.8010011458067764e-02  -3.2990608442467290e-01 -1.7232590995724598e-01 4.4182631822602299e-02  -3.8033556998530380e-03 -5.0239240445403191e-02 -1.4420686475898140e-01  1.4898963565308029e-01 -2.7452713190751205e-01 -2.7699369080111134e-02  1.9866204945501289e-03 -2.4524223924706118e-01 1.2309325624156892e-01  -2.2082731967877198e-01 -3.6304836107669791e-01 -4.5288165826179921e-02  -3.7782598931112528e-02 -1.4996307981109797e-01 -1.1435035212916045e-01  -9.0809880620125516e-02 3.7882061952131812e-02 2.3700866750267044e-02  -5.1187959576823164e-02 -4.4294570596974774e-02 -7.0730484065872068e-02  1.0912830846323664e-01 -1.2264056405167190e-01 -4.7296239122534119e-02  1.3078236019111550e-01 -2.5617168296010367e-01 3.0358353412519362e-03  1.9835749770091348e-02 1.9973202828093256e-01 2.8074653483284643e-02  -1.9457398294661470e-02 1.7354535953259528e-01 1.1212740764060200e-01  -1.6047332562442670e-01 -1.7556530025969123e-02 4.6371987800672095e-02  1.5888137364464663e-02 -4.3672878471653624e-02 -4.2683283793703966e-02  1.1026879032056086e-01 1.5119024993535657e-02 -2.2822989985460343e-01  -3.8896146415056598e-01 -1.9705969443684901e-01 -1.8933618621206677e-01  -1.0430292610040942e-01 -2.5630052606882611e-02 -4.0349858413238106e-02  2.0964578713249722e-03 -1.0048958842484310e-02 8.7845662090604987e-02  2.0938087529887270e-01 1.6853446658394555e-02 4.5413427427470732e-02  2.7052902851756050e-01 -1.9875523439386267e-01 9.7013316718526157e-02  5.6418201526358319e-02 2.1022308682292015e-01 1.3422319337942337e-01  -3.3051097530726037e-01 4.8410395652371874e-02 1.6730048708503663e-02  -2.6515022501353286e-01 -1.3213070500505472e-01 6.3277211542772369e-02  4.5118206388972254e-01 7.4037316256582913e-02 -3.3339924950961830e-02  2.8188312816484665e-02 -6.2169236588320083e-02 2.4198388402026969e-01  -3.7801917968563400e-02 -1.3920883329412567e-01 3.5845028102493687e-01  -2.9154200032175454e-01 2.0645968979358550e-01 1.7345113176902627e-01  -3.8449332581533596e-01 2.5880192341187830e-01 -2.1526232739228052e-01  -5.6494382335629693e-02 3.3237566280606201e-01 3.9095273011816811e-02  -4.1052089341158804e-01 3.2590485757514714e-01 -2.3381892648121744e-01  -1.0145429773680523e-01 9.7969913565822339e-02 9.6822857931680800e-02  2.2673730868647524e-01 -7.5358138509473593e-02 1.2978210609640803e-01  4.6436019383350813e-01 3.7685678799844607e-01 -2.4300415623607433e-01  -8.9803302183980222e-04 1.8370581647577432e-03 3.8921693490420607e-02  2.0431413067461593e-01 3.1624683985500357e-01 2.0229964715761668e-02  -1.2415605100447796e-01 4.2555054800870734e-01 -1.8355928981075070e-03  -5.8076891571891262e-02 3.9739849117329346e-01 1.2320612751544835e-02  -3.5665660240012903e-01 2.3972501586504461e-01 1.0954872366999911e-02  -7.8533884210910759e-02 -2.0431897507728192e-01 2.0010945684927030e-02  -2.2052391875225125e-01 -4.5255475780023485e-01 1.9720977494882944e-01  1.2681199395529816e-01 -4.2751429709599609e-01 -2.2410487416294142e-01  4.1235629676619345e-01 -1.4159135551318935e-02 -5.4133318072072729e-02  1.3909079966849622e-01 -3.7620259664172651e-02 7.1032034833963600e-02  3.3859483645256006e-01 -1.2385290976030727e-01 3.2149852110825933e-01  1.9879115837747516e-01 -5.4717112873557607e-02 -2.8246681485711056e-01  -8.6793543448857688e-02 -3.0628604610168603e-01 -3.1271619144280344e-01  -4.0396768556188162e-01 1.0333061587430578e-01 -1.4342692494652720e-01  4.3452904322215324e-01 4.3368477239798769e-01 2.5767411026520476e-01  -3.4530190595033275e-02 -2.0053848606820196e-01 -2.9702782547971368e-01  8.1350458082514454e-02 8.7094361557829666e-02 -3.1543683602395040e-02  4.2822532385873552e-02 3.0712387342904196e-01 -1.2482268052226968e-01  3.1468341132021921e-01 3.4444527117507090e-01 -2.4228795865196628e-01  -1.6462923887519190e-01 1.3146840905357091e-01 -1.1745799378113245e-02  8.8702506794448757e-02 3.9023897827054771e-01 1.0231734121816628e-01  -1.7758566269412968e-01 -8.6321791341999243e-02 -1.0719086711297421e-01  -1.9713564002288853e-01 -1.7055066398004251e-01 -5.7416013458135962e-02  -3.9036905779990611e-01 2.0423879157320779e-01 -9.3012367416956357e-02  -2.9155113684232048e-01 -1.7389528393623460e-01 -1.9022931108967714e-01  -3.5553707700229453e-01 1.2725101277687997e-01 1.2865148465107273e-01  3.0821456740700637e-01 -3.3373454717130230e-01 -4.7885358060774645e-02  2.8243909791804112e-01 -1.7071995862263444e-02 3.9568415645353749e-01  -7.5430833624228949e-02 -1.0575253367557075e-01 1.7676163883389567e-01  -1.4088392859304685e-01 -2.8997497363975122e-01 1.4090506389309659e-01  8.7399036191374724e-03 -1.0120938209716283e-01 -9.3882357005206515e-02  3.4837390369277910e-02 -1.8013469586679889e-01 -4.0980966899502487e-02  -1.4416348679553315e-01 -2.1922675441893051e-03 -2.5301139164855380e-01  1.6810954576786089e-01 1.0823305802257266e-01 -1.3595954404463478e-01  4.7991124219457448e-02 6.6115579057619292e-02 -8.2691369754791286e-02  -6.5952534070398819e-02 -6.8772721556325966e-02 2.1105263574515945e-01  -5.1948050401650694e-02 1.0806336834445585e-02 -7.7367473243493634e-02  1.9575542303575344e-01 3.3768220399261717e-01 1.5825365686363571e-01  -1.6819377848460557e-01 1.5265334938873795e-01 7.3937965643336323e-02  1.1062157549937512e-01 -3.2762185053579240e-01 -1.5379156159783072e-01  8.7929848085171999e-02 -3.0242357134368697e-01 -1.8808037577015180e-01  -4.2912417176531985e-03 -1.3614916914370256e-01 4.1831368786509008e-03  1.6767962770290945e-01 -8.2191201883197881e-02 3.8326233256564662e-01  1.7857594832995724e-01 1.6589431999779469e-01 -1.1257346062094604e-01  1.8083782144249802e-01 1.4415962345251149e-01 2.4047357525362162e-01  8.3216347545398903e-02 3.7894078650833951e-01 -1.1222606612708028e-02  -2.2104863189655194e-01 3.7198292629021003e-02 -6.0557232626480891e-02  5.8925309200917292e-02 5.2887671220610603e-02 1.1827200769932221e-01  2.3406602150111397e-01 -3.2844683365447665e-03 -9.4180038771397204e-02  2.2830262588684647e-01 -1.3885495389705027e-01 -1.5276402301264846e-01  -8.4191766718873060e-02 1.6162670513749688e-01 -1.3165151089162469e-01  -7.1794046393672427e-03 -1.3107919582873506e-01 -6.6182294189334079e-02  7.7130621993517695e-02 1.3153820265027982e-02 8.8254395013893677e-02  -8.2570285806302917e-03 8.4556128948804390e-02 2.4996401457466891e-01  5.3236044115264315e-02 -8.3450386522144426e-02 1.2011472555374192e-01  -2.9788702938021938e-02 8.0866800289511070e-02 1.5010657306539194e-01  4.1193440984581525e-02 2.2696606755725857e-01 -1.7223210062576128e-02  -3.4534674964035034e-01 1.6549603881255723e-01 8.4329470303521309e-02  -9.1577218077969202e-02 2.4227411682364758e-01 9.7080288681332463e-02  -4.3558558757988156e-02 1.2153422737595837e-01 -7.3582029915100530e-02  -3.0266812263275533e-01 2.7667357224600442e-01 -1.8874634462209444e-01  4.5571445347940864e-01 6.0612158935933669e-01 6.2450913883326786e-01  5.2061269334673232e-01 2.3058864975667789e-01 -1.7903274031996977e-01  1.1948283591026526e-01 -5.1548503539436219e-01 -2.0580404610971442e-01  -5.5197005410704758e-01 -3.1070447726642492e-01 -2.1216774632702168e-01  -1.7597812522052955e-01 -8.8360261844590657e-02 -3.3786051792413903e-02  -2.0396458014160260e-01 1.0638685201826369e-01 2.2266758251772233e-02  3.2319015611138022e-02 1.9617854871643148e-01 -2.4969008236638612e-01  4.1834039449598981e-01 4.0348595197120046e-01 1.1863222051878890e-01  4.4214201719177881e-01 1.1972975968243668e-01 6.8144792513556804e-02  2.9491262637429537e-02 -1.0140165283325743e-01 -4.0730528502847985e-01  2.3781810726424926e-01 -2.5240427513637842e-01 -1.8627935216547434e-01  5.6174533991385459e-02 -4.4205494761613832e-02 -3.7521697871591447e-01  1.2919297989604331e-01 -9.9711614720776540e-03 3.1359979408015659e-02  3.7082567960727633e-02 -1.9764957446993447e-01 3.0290134990048645e-01  1.3874493365336582e-01 -2.8195905046050573e-01 4.0022374842869318e-01  2.2561081022983531e-01 -2.4588479293603127e-01 3.6894310383309009e-01  1.4173345747199018e-01 -4.8675480847803648e-01 -3.0423830980157360e-02  1.8595074255293238e-02 3.0943756507265902e-01 7.3113565627381250e-02  2.4791946847327490e-01 -2.9449310692579434e-02 2.9533085740663401e-01  9.3269249783803673e-02 2.6464202916375612e-01 4.1064807165195560e-01  5.8773427556187918e-02 -3.2794306617744351e-02 1.3144503590508355e-01  -4.8402385563719105e-02 1.5201689087659059e-01 3.9272852486213775e-02  -1.6399275159356677e-01 1.9571569382454163e-01 1.7174915934573426e-01  2.9321052988802765e-01 -3.6779112086388538e-02 1.0571619582923224e-01  2.2450202480433704e-01 -1.7980047940867810e-01 1.5640995750399225e-01  2.3400173246764303e-01 1.7795317431307664e-01 -1.5248979237110427e-01  3.3599621088332907e-02 2.9717817216160891e-01 -4.6737587017369790e-02  3.4435236503683725e-01 3.7305353333655877e-01 1.3204046777035547e-01  2.7213116004693011e-01 -4.1505249072006217e-01 -1.6159226440226487e-01  7.4954773057127042e-02 -4.2602830056176759e-02 -1.7204262588892398e-02  2.4237109005679222e-01 1.2674039629012557e-02 3.0359259889633261e-01  -2.6861774590903764e-01 7.7205583702325498e-02 -1.6502600565769611e-02  -4.9999318313046071e-01 3.4240376191532712e-01 2.9028024829824034e-01  2.0299546387102468e-01 3.6948524289885404e-01 -3.1390830900482692e-03  6.7781695589141655e-02 -4.5425059827292280e-02 1.5976585429527404e-01  6.4315766658149656e-02 -6.7718816293469514e-02 -5.5155661781581954e-02  8.4680901890394206e-02 -5.9231151672992588e-02 -6.2585330582706183e-02  1.8093626074458391e-01 -1.1427693033176280e-01 1.9664907704056450e-01  4.5306549238231526e-02 -4.5045943937647499e-02 -7.1515220833939561e-02  2.0772436664482694e-01 -6.2124622788754746e-02 2.2812657330006464e-01  1.1134772601661935e-01 3.0914720892202052e-01 1.3433729322374835e-01  3.1215471370265135e-01 -1.8432310885729702e-01 1.1324587281962173e-01  -9.0934175702472461e-02 -2.4765152917431202e-01 -2.0422309016659426e-01  2.2674662291796675e-02 -5.7081791705029505e-01 -6.1304587631584410e-02  3.2414790092439630e-03 -7.2