<?xml version="1.0"?>
<VTKFile type="UnstructuredGrid"  version="0.1"  >
<UnstructuredGrid>
<Piece  NumberOfPoints="3594" NumberOfCells="14547">
<Points>
<DataArray  type="Float64"  NumberOfComponents="3"  format="ascii">0 0 -4000  0 250000 -4000  250000 0 0  250000 250000 0  135000 0 -60000  135000 250000 -60000  250000 0 -60000  250000 250000 -60000  65308.5 173604.8 0  78441.2 185529.2 0  65707.89999999999 168017.6 0  73555.60000000001 174095.8 0  61257.8 157386.9 0  65291.6 154352.5 0  82112.3 172814.3 0  58804.1 138685.6 0  106822.8 190893.8 0  60152.4 136426.2 0  144960.9 230041.9 0  88660.10000000001 163931.9 0  134829.2 208246.3 0  82409 149993.8 0  65214.4 127836 0  67249.7 122418.9 0  91916.7 141284.3 0  125498.1 99698.5 0  111195.9 162013.4 0  92905.39999999999 131283.2 0  77176.5 109747.4 0  90809.3 124059.5 0  107806.1 141615.9 0  104439.5 126126.3 0  137051.8 160541 0  118095 132800.4 0  82238.39999999999 90851.5 0  84123.2 92291 0  98197.5 105309.4 0  105163 104713.8 0  154799.8 153672.9 0  133655.9 122823.1 0  111467 94557.3 0  106995.1 77971.8 0  149450.7 123239.8 0  192061 157764 0  133903.2 45232 0  140000 0 0  136000 250000 0  9714.285714284615 250000 -3714.285714285747  19428.57142857481 250000 -3428.571428571329  29142.85714285597 250000 -3142.857142857177  38857.14285713715 250000 -2857.142857143025  48571.42857141832 250000 -2571.428571428873  58285.71428569948 250000 -2285.714285714721  67999.99999998066 250000 -2000.000000000569  77714.28571426184 250000 -1714.285714286416  87428.571428543 250000 -1428.571428572265  97142.85714282417 250000 -1142.857142858113  106857.1428571053 250000 -857.1428571439606  116571.4285713865 250000 -571.4285714298085  126285.7142856677 250000 -285.7142857156564  250000 240000.0000000016 0  250000 230000.0000000032 0  250000 220000.0000000048 0  250000 210000.0000000064 0  250000 200000.0000000079 0  250000 190000.0000000095 0  250000 180000.0000000111 0  250000 170000.0000000127 0  250000 160000.0000000143 0  250000 150000.0000000159 0  250000 140000.0000000175 0  250000 130000.0000000191 0  250000 119999.9999999916 0  250000 109999.9999999825 0  250000 99999.99999998408 0  250000 89999.99999998568 0  250000 79999.99999998725 0  250000 69999.99999998885 0  250000 59999.99999999045 0  250000 49999.99999999205 0  250000 39999.99999999366 0  250000 29999.99999999526 0  250000 19999.9999999968 0  250000 9999.999999998399 0  130000 0 -285.714285714285  120000 0 -571.4285714285701  110000.0000000001 0 -857.1428571428546  100000.0000000001 0 -1142.857142857139  90000.00000000017 0 -1428.571428571424  80000.0000000002 0 -1714.285714285709  70000.00000000025 0 -1999.999999999993  60000.00000000026 0 -2285.714285714278  50000.00000000023 0 -2571.428571428565  40000.00000000019 0 -2857.142857142852  30000.00000000015 0 -3142.857142857139  20000.00000000009 0 -3428.571428571426  10000.00000000004 0 -3714.285714285713  0 9999.999999998096 -4000  0 19999.99999999726 -4000  0 29999.99999999545 -4000  0 39999.99999999275 -4000  0 49999.9999999912 -4000  0 59999.99999998965 -4000  0 69999.99999998808 -4000  0 79999.99999998655 -4000  0 89999.99999998501 -4000  0 99999.99999998347 -4000  0 109999.9999999819 -4000  0 119999.9999999804 -4000  0 130000.0000000079 -4000  0 140000.000000017 -4000  0 150000.0000000155 -4000  0 160000.000000014 -4000  0 170000.0000000124 -4000  0 180000.0000000109 -4000  0 190000.0000000093 -4000  0 200000.0000000078 -4000  0 210000.0000000062 -4000  0 220000.0000000047 -4000  0 230000.0000000031 -4000  0 240000.0000000016 -4000  134615.5786831678 8376.221222376078 0  129135.8381374389 16690.61556165003 0  123693.3119097638 25029.34528065769 0  118458.7304757098 33499.41630675747 0  114183.5561631282 42453.40693221996 0  117152.9012549134 51656.5775220433 0  109640.5189223821 56772.26946740811 0  99783.22349336625 58163.79074226946 0  89906.64048415456 59427.041153887 0  80231.83368741472 61714.93090982783 0  73457.07599492084 68333.04562829909 0  74666.1562536891 78126.62096439983 0  77477.57171300898 87678.05180735435 0  78461.83411646895 97534.63399308435 0  75049.04009726809 106816.2708870931 0  69538.50964765088 115103.6313494232 0  63598.75337311435 123095.8011052612 0  58118.08704720287 131402.6075281692 0  54672.56885839759 140685.5429709587 0  54507.01644649181 150612.6283068675 0  56360.01451579022 160386.8607035369 0  59277.85033353963 169905.2699317088 0  62638.60576621335 179274.2426304358 0  68212.99295126265 187459.3754999009 0  75814.40529046141 193858.3467082375 0  84761.00503602097 198204.6515231062 0  94061.92665129391 201734.182040823 0  103676.4565927747 204325.1412130333 0  112974.540309108 207830.3235759034 0  118972.4630267572 215380.3369922852 0  120264.8170507578 225241.997356352 0  123444.1757132735 234565.2722630062 0  129527.245366261 242435.1534677757 0  250000 250000 -9999.999999997535  250000 250000 -19999.99999997662  250000 250000 -29999.9999999377  250000 250000 -39999.99999995799  250000 250000 -49999.999999979  250000 240000.0000000016 -60000  250000 230000.0000000032 -60000  250000 220000.0000000048 -60000  250000 210000.0000000064 -60000  250000 200000.0000000079 -60000  250000 190000.0000000095 -60000  250000 180000.0000000111 -60000  250000 170000.0000000127 -60000  250000 160000.0000000143 -60000  250000 150000.0000000159 -60000  250000 140000.0000000175 -60000  250000 130000.0000000191 -60000  250000 119999.9999999916 -60000  250000 109999.9999999825 -60000  250000 99999.99999998408 -60000  250000 89999.99999998568 -60000  250000 79999.99999998725 -60000  250000 69999.99999998885 -60000  250000 59999.99999999045 -60000  250000 49999.99999999205 -60000  250000 39999.99999999366 -60000  250000 29999.99999999526 -60000  250000 19999.9999999968 -60000  250000 9999.999999998399 -60000  250000 0 -49999.99999997466  250000 0 -39999.99999999574  250000 0 -30000.00000007532  250000 0 -20000.00000005069  250000 0 -10000.00000002534  240416.6666666667 0 -60000  230833.3333333333 0 -60000  221250 0 -60000  211666.6666666667 0 -60000  202083.3333333333 0 -60000  192500 0 -60000  182916.6666666667 0 -60000  173333.3333333333 0 -60000  163750 0 -60000  154166.6666666667 0 -60000  144583.3333333333 0 -60000  240416.6666666667 250000 -60000  230833.3333333333 250000 -60000  221250 250000 -60000  211666.6666666667 250000 -60000  202083.3333333333 250000 -60000  192500 250000 -60000  182916.6666666667 250000 -60000  173333.3333333333 250000 -60000  163750 250000 -60000  154166.6666666667 250000 -60000  144583.3333333333 250000 -60000  135000 240000.0000000016 -60000  135000 230000.0000000032 -60000  135000 220000.0000000048 -60000  135000 210000.0000000064 -60000  135000 200000.0000000079 -60000  135000 190000.0000000095 -60000  135000 180000.0000000111 -60000  135000 170000.0000000127 -60000  135000 160000.0000000143 -60000  135000 150000.0000000159 -60000  135000 140000.0000000175 -60000  135000 130000.0000000191 -60000  135000 119999.9999999916 -60000  135000 109999.9999999825 -60000  135000 99999.99999998408 -60000  135000 89999.99999998568 -60000  135000 79999.99999998725 -60000  135000 69999.99999998885 -60000  135000 59999.99999999045 -60000  135000 49999.99999999205 -60000  135000 39999.99999999366 -60000  135000 29999.99999999526 -60000  135000 19999.9999999968 -60000  135000 9999.999999998399 -60000  9760.266420117418 0 -5952.053284023483  19520.53309387125 0 -7904.10661877425  29307.1102415074 0 -9718.421407375839  39104.7333719938 0 -11473.30036109216  48875.83924532436 0 -13369.19882213981  58571.87012930932 0 -15613.67939664691  68124.11986543986 0 -18408.53002372226  77527.76485865096 0 -21667.33907869995  86719.09466349281 0 -25482.98540480309  95631.92793098884 0 -29908.59492259344  104180.5528547143 0 -35003.66989024555  112449.6580983703 0 -40542.62450796275  120509.52686276 0 -46382.42388125008  127994.6878848568 0 -52930.54997290741  9760.266420117418 250000 -5952.053284023483  19520.53309387125 249999.9999999999 -7904.10661877425  29307.1102415074 250000 -9718.421407375839  39104.7333719938 250000 -11473.30036109216  48875.83924532436 250000 -13369.19882213981  58571.87012930932 250000 -15613.67939664691  68124.11986543986 250000 -18408.53002372226  77527.76485865096 250000 -21667.33907869995  86719.09466349281 250000 -25482.98540480309  95631.92793098884 250000 -29908.59492259344  104180.5528547143 250000 -35003.66989024555  112449.6580983703 250000 -40542.62450796275  120509.52686276 250000 -46382.42388125008  127994.6878848568 250000 -52930.54997290741  145499.999999982 250000 0  154999.999999964 250000 0  164499.999999946 250000 0  173999.999999928 250000 0  183499.99999991 250000 0  192999.9999998977 250000 0  202500.00000009 250000 0  212000.000000072 250000 0  221500.000000054 250000 0  231000.000000036 250000 0  240500.000000018 250000 0  240000.0000001065 0 0  230000.0000002129 0 0  220000.0000003194 0 0  210000.0000004258 0 0  200000.0000005323 0 0  190000.0000006387 0 0  180000.0000006325 0 0  170000.0000004744 0 0  160000.0000003162 0 0  150000.0000001582 0 0  81541.63335874674 35498.13281562441 -1158.202651726381  46004.68664141578 194254.3443995834 -2060.726341037222  32687.99629987251 175105.6839569158 -2219.415882311186  36663.59507600099 63079.34846719183 -2167.093431592842  52002.09530018299 134928.3526843132 -266.7613614382204  59599.13772899003 109177.3480854863 -691.4602217251189  13806.90843888927 84795.87142461444 -3288.608480833754  42042.1003123136 65482.76889364541 -1784.344992951069  85917.78356508871 211210.3489857896 -1084.187284676976  26344.15959288631 140617.4121347481 -2112.437398247788  49350.86723141051 36336.78604214006 -2272.704599832591  21702.40331646254 119880.0690882354 -2466.437976166102  57313.56589490068 220733.4025395545 -2090.49117424689  28866.73893404105 218351.493928639 -3037.311471166797  64300.33793173476 48969.94193502321 -1793.328299662734  52482.25996720623 28090.02703717845 -2196.191483315934  63095.9704402233 54899.2587271606 -1627.600015239288
[...]
<PointData  Vectors="sample_post"> 
<DataArray  type="Float64"  Name="sample_post"  NumberOfComponents="3" format="ascii">9.4302628395515731e-02 5.9725704238567057e-01 -8.3998036857130642e-01  2.8507554379313893e-01 -4.4425590558108635e-01 1.1343346394495961e+00  -1.1789851688418891e-01 -1.9197601968555605e-01 2.4846118289838698e-01  2.1931625065158888e-01 2.6179015088447255e-01 1.8874153401316596e-01  4.5453486866071713e-01 -1.6437337801058374e-01 -7.2039652297938947e-02  -2.0528831412983211e-02 2.8915012516549005e-01 -6.1154378728841652e-01  -5.2568998844320214e-01 5.1146815784310973e-01 -1.2536464174696224e-01  -5.0536269243989973e-01 1.4246443734537631e-01 4.1427659638725622e-01  -6.7025419910331882e-02 1.3132645171384822e-03 -1.4089568833970498e-01  3.8991547534662939e-03 1.0728757788880532e-01 9.9895284085333800e-03  -6.3324067323396932e-02 -4.4177859361780028e-03 4.7441320969535050e-03  -4.1438112501559231e-02 2.1026474762728047e-02 -1.4326832460261776e-01  7.3526992686414994e-02 2.6849821281042852e-01 2.8724590494708907e-01  5.6635897656448414e-02 2.5569226743682744e-01 1.8047955410205019e-01  2.3799108238230923e-01 1.8395941763796289e-01 -2.4551928144362405e-02  -8.0784645817127784e-02 -8.9345148243921303e-03 2.5415486594303532e-01  7.5022041860931546e-02 -1.6962386267051482e-01 -5.3610198681391469e-02  -1.3239744157351699e-01 -1.3832469441131720e-01 2.4364913642035546e-01  6.8591736186431079e-02 -5.9568306729182043e-02 1.1197613766114635e-01  1.5084602929307592e-01 -2.4874748631974791e-01 1.2253914186886164e-01  -2.5825869473275515e-03 2.3451338229102733e-01 2.3647113473922343e-02  -1.1735972358140351e-02 8.8853608072119367e-02 7.3370012804142196e-02  -2.3327014838942095e-01 7.4258422587924450e-02 1.8620425077839636e-01  -8.3635544171974302e-02 2.9539414800164841e-02 1.9918020079474910e-01  -1.4196951786757183e-02 1.7966620948673584e-01 1.9531288506837146e-02  -2.9204414121390878e-02 1.0181522703261925e-01 -1.8971538300178628e-01  9.4601010147551609e-02 1.0303562922398260e-01 -1.8229573895430612e-01  1.5082925167159320e-01 2.4202897230692553e-02 -1.5855979472075765e-01  1.0755700911670338e-01 -2.7790460676053924e-01 -1.2627537046116366e-04  1.4692122348355141e-01 -2.8927553104853516e-02 -1.3559265684816826e-01  -1.4183272206441466e-01 9.7108204238492521e-02 -1.7502432471347548e-01  1.0637852472713491e-01 7.6746380272502468e-02 7.4544531331671438e-02  1.3632692424778600e-02 -1.6300200689013059e-01 -5.9420336185022606e-02  -2.0070096151569122e-01 1.7203855892729158e-01 -5.9332271626530729e-02  1.7836551244881024e-02 -7.8777011428561541e-02 -3.3310079103771301e-01  2.3882991649880825e-02 -9.7386525611381877e-02 -2.8651651464175931e-01  1.9452675080761375e-01 -1.5713125063029912e-01 -1.0782654707253751e-01  1.0852659011554656e-01 -2.0135346718717881e-01 -1.7548770917835491e-01  8.3506408520026124e-02 2.8096900703383443e-01 6.2352252064507847e-02  -1.4493385129227529e-02 -1.4356152586547880e-01 -5.7214616708651189e-02  2.5335952900306069e-01 4.8915938145298841e-03 -6.9752555224303556e-02  -9.7599850771207725e-02 1.4387055778825011e-01 -2.3935205841900928e-01  2.8472947257271515e-02 7.0229506802070074e-02 2.1284411513718744e-02  1.9521201191231932e-01 8.0035046252875081e-02 -1.0727816921580287e-01  1.4823908541328934e-01 9.8617179469819433e-02 -4.8848620639268488e-02  5.7200206124930202e-02 -1.9564093319677758e-01 2.9881440700871026e-01  1.5530846039211699e-01 -2.3265559504757582e-01 -2.4659272633108578e-01  -1.0890338966459182e-01 3.0497061357446949e-02 -8.4679302880944371e-02  -4.6504837951785399e-01 7.5499849353811010e-01 2.9111722208962739e-02  -1.7026053939069385e-01 3.9809521222986188e-01 -1.1769983295494815e-01  -9.2624673961441362e-02 -6.1148187392735254e-02 -3.5298001856943989e-01  -1.1259428527297559e-01 -1.6752852595929477e-01 -6.3651640830673917e-01  7.9846890302277596e-02 5.1402878210690332e-02 7.3107495996309882e-03  6.7019232854355779e-02 2.5496704176829299e-01 2.4865213616461451e-01  -1.2337728706653762e-01 3.9748529015175083e-01 -3.2213088548658772e-02  8.5806278350871679e-02 -4.4181950860182152e-02 -9.5884568434519632e-03  -2.5071730129986564e-01 -3.1984223159419324e-02 -4.5501031620237650e-02  -1.4887951908524683e-01 -4.2057958125897676e-01 2.2880285187109395e-01  -4.5070528744455475e-02 -1.6945165743850032e-01 -3.7546216801738885e-01  1.3757008220286343e-01 -3.4027142653265696e-01 -1.4910311645563648e-01  2.0497326023094142e-01 3.9824528065775233e-01 3.2905765780953755e-01  -2.3678648381384126e-01 6.0554755608232806e-02 3.9324731728261697e-01  -1.4840461121585832e-01 2.6297451360170726e-01 2.6297835411512543e-01  1.6743044904791459e-02 3.3834844163106073e-02 -1.8727165254036414e-02  3.1229954796322656e-01 2.4274515459718374e-01 -1.2775845235546723e-01  1.9759407092634257e-01 -1.0304397777295561e-01 -3.2457346461712627e-01  8.0318091525957994e-02 4.3630504363479455e-02 -3.7251476570228849e-02  2.7992878664093596e-01 -2.9252451294107379e-01 -5.0576173355025011e-01  -1.5640771160068428e-01 -2.1504156073075518e-02 -1.4507036506007015e-01  1.8340981988151323e-01 6.1932280422727227e-02 -1.3324001526042151e-02  1.0237796005296337e-01 -3.2344231306989962e-01 -2.2423846844458276e-01  7.9677574330512202e-02 -1.8154717614893656e-01 -5.5838960050429029e-02  2.6605843168124284e-03 -2.3484553251577109e-01 -4.1892096397596601e-01  -3.3051902922661142e-01 7.5133368442547810e-02 -1.5098856391059065e-01  -9.1497553509480037e-02 3.9327710489932732e-01 -9.7042160704157679e-02  -1.9345168409945754e-02 -4.8349562613055522e-02 -9.2431653464903618e-02  -1.7526530694031983e-02 -1.5699484231408012e-01 -1.1951462704870380e-01  -2.2415677332146416e-01 -3.2225203113435480e-01 2.0427386950686188e-02  -1.7890330912232197e-01 6.2388733873603851e-02 1.2943639314253508e-01  -9.6579140457153559e-02 -9.2608471661911301e-02 -1.9067898031896402e-01  1.6243780153934537e-01 -3.0293456166301670e-02 -3.5731923152913997e-01  3.0448423757487048e-02 6.3628663271102648e-01 -1.0967214098088714e-01  -3.5971621424404371e-01 4.0613284594411087e-01 4.1535388850076842e-02  1.9948482096966291e-01 1.5214945998189039e-01 -1.2877388144533989e-02  -8.6177766035581013e-02 2.9428236113461947e-01 1.3999107436438230e-01  -6.1868145113121567e-02 -5.5081466484368437e-02 1.8235756521074672e-01  3.4035189948556993e-01 1.9006704217166780e-03 -7.3847432546146383e-02  5.7068560058665938e-02 7.3092225156267426e-02 -2.2791216148549029e-01  -2.3870359149655276e-01 6.5053068607168595e-03 3.2604152968416483e-01  -1.1697531257967167e-01 -2.8730229261853463e-01 1.8372999366672924e-01  -1.7505294414840719e-01 -1.2123297025680690e-01 -1.0326085795540775e-01  -3.7539814835487607e-02 -1.0173973444023823e-01 5.3520908981041452e-03  3.7014534939446182e-02 4.1316772846324068e-02 9.1112583899217447e-02  -3.2847219791631838e-01 3.7600514002509017e-01 2.5045135538770590e-02  5.0473662647312775e-02 4.3484240446485939e-01 8.4476879076880840e-02  9.3961525608050753e-02 8.2904073917952237e-02 -1.8678274511944049e-01  -8.0110901589999173e-02 -1.6217099324708190e-01 -3.3003736518144749e-03  9.8164613757512764e-01 5.7640001794984588e-02 3.9450881442672986e-01  5.2595162180127020e-01 3.8465317911323862e-02 1.9370719378643439e-01  -1.4043462176094848e-01 5.0659985284505804e-01 1.0446489802828451e+00  -3.1621771459195736e-01 3.4333916500065270e-01 -2.7048176577000038e-01  4.7028648129893452e-01 -6.5274523754294045e-01 -3.6959574062494616e-01  -4.1805516253906516e-01 2.6332703294776094e-01 -1.0245156276511476e+00  -4.0821440330427056e-01 -3.1984495167462113e-01 -1.8364441208736362e-01  -3.6566361155383253e-01 -2.0960526124303241e-01 -2.8078104443561985e-01  -1.3406789226498181e-01 -3.1447742826815658e-02 1.3150070142863263e-01  -6.1967453972198905e-01 7.2566434121438783e-01 1.7982035239419613e-02  -4.8295038003837082e-01 2.6236772692673371e-01 5.6544654779638759e-01  5.7987017873084745e-01 3.8727118146745093e-01 5.2773047207826274e-01  -9.0101038082977303e-01 2.4672095922331319e-01 4.9099365865612182e-01  -8.0940706729090584e-01 -4.7695487786446777e-01 -2.7709071648131212e-01  -1.9658563319014694e-01 7.1780431509224585e-02 -1.4888980583460132e-01  -5.3270687941106432e-01 1.0190716650770189e+00 3.5048047968694246e-01  -1.8152801784641449e-02 2.8304594859222038e-01 3.0465553455059308e-01  -2.8684458579053096e-01 3.4901606036696620e-01 -3.1863786702690089e-01  -6.9210998554285141e-02 7.5305176776589211e-01 -2.7826263959518149e-01  1.0484658818507910e-01 1.0820906844172162e+00 6.1695007129792567e-01  4.5981168754276103e-01 -2.2224601062262919e-01 -7.3134580945399583e-02  3.0265138197145064e-01 -6.2591323744259120e-01 -7.2003601030609221e-01  8.4287117601995731e-01 2.7673023925074394e-02 -2.6406550880536755e-01  -4.4180431282207638e-03 3.9973964364657694e-01 3.3153914396326128e-01  -3.3970521433942112e-03 2.6371614360492723e-01 9.8415930595319001e-02  -8.0037616908298914e-03 2.0932875507699086e-01 -1.6088716282350288e-01  1.0672737785121882e-01 5.8765542947009544e-02 6.1270558433775206e-02  -2.7331257088547986e-02 3.1665774480033698e-01 -2.2979950115192393e-02  6.3470341842884297e-03 1.9963174057395761e-01 2.0775762307129766e-01  -7.7526808939054172e-03 5.4663810113290204e-02 1.5501170598829453e-01  -1.5695726296985266e-01 9.4172394075701785e-02 -8.9359724197389218e-02  3.8916045464609542e-02 4.3893105408699555e-02 -1.8003409224502293e-01  -9.6241336589145091e-02 2.4250946214193661e-01 3.8046752638806310e-02  7.0895600679523919e-03 -7.7396186272657902e-02 -3.3000745942313244e-03  -1.2039604237888296e-01 -4.7536214878371641e-01 7.4918346509291328e-02  -1.2098792660014632e-02 -1.1939035869455236e-01 -2.2584049215268565e-01  -9.5239760806343124e-02 -2.4845230371916124e-01 -2.1992179783327079e-01  -5.8284852695222239e-02 2.4631040956703262e-01 -7.9153223180338343e-03  -6.0330730826520032e-02 -1.5566947120555844e-01 1.8919917408510434e-01  1.1080904249678908e-01 -1.4129869984141302e-01 9.0003711436060008e-02  -1.4865895416137453e-01 1.4425709094983818e-01 2.3908409940926725e-01  -2.6871976752954191e-02 -1.5616031338660497e-01 9.1705840937365571e-02  -4.5903100691942637e-02 1.9241931627955348e-02 8.8246025419047316e-02  1.0000057234964471e-01 1.0533300348825116e-01 9.4330754018750171e-02  2.1054606467633952e-01 7.2852928280643880e-02 1.7045131382014120e-01  -4.7919087881316709e-04 -1.4560786836307876e-01 -3.3568053967002486e-02  -3.5418968015391683e-01 1.8697686566614784e-02 2.0785891947890215e-02  -1.6953365989167798e-01 -3.1526925066721856e-01 6.9891668704576734e-02  6.4870477471975635e-02 2.7737775745116548e-02 1.0591083213352139e-02  -1.5064077204816878e-01 2.5094367421912095e-01 -1.5639417823654422e-01  7.4450159482236600e-02 -1.6244449990179446e-01 5.3759038745093808e-02  -1.2041659002866695e-01 -2.1545283133512874e-01 -3.1663761351278012e-02  1.4423633160104349e-01 3.2197384560848891e-02 -1.0740947422652136e-01  1.0519702567610599e-01 2.0645175686916242e-01 -3.0377905787506537e-01  1.0245955964324181e-01 6.7756398216218594e-02 -1.0637710096727523e-01  1.7202951119508127e-02 9.5936466295009695e-02 -2.0135552928189299e-01  1.2926031841501379e-01 -6.3686268109842681e-02 -3.5450744448546179e-01  1.4412825649096939e-01 1.6906339673896020e-01 2.0592678640874520e-01  -4.2049727354559602e-01 -1.2202458346238020e-01 2.9741854561462394e-01  -3.5173838374156730e-01 -1.2397556594945305e-01 -1.0243986900243354e-01  5.4602208926480102e-03 1.3830839857840460e-01 8.7165246867472554e-02  -5.0392478972755772e-01 2.2826854274960348e-01 1.5090602279544721e-01  -1.8744019487752486e-01 1.1963041369978648e-01 -7.6161727101803758e-02  -1.1389267108737551e-01 -4.0893684717219908e-03 -8.5274030295771422e-02  6.6305879189990286e-02 -2.4219628276634378e-01 3.8292257202386970e-01  1.4068987980660586e-01 -6.8610393504417444e-02 3.1517572229033297e-01  2.4739154559478865e-01 4.2686971910366807e-02 7.6597858622138013e-02  2.4369294546049988e-01 -1.3493728148473610e-01 3.1975217598314322e-02  3.3923333516984061e-01 -1.0744122903385128e-01 3.8070793956441573e-01  1.0583908774854263e-01 1.2444158801870435e-01 5.4101941752933085e-02  2.7222292960699987e-02 -2.9236934564572803e-01 -1.5563548961270066e-01  1.2234661321755183e-01 -1.7833173074634129e-01 1.2605481311773559e-03  -9.9612678646467417e-02 8.8601959055169918e-02 2.1757443146910876e-01  -4.2281879213400253e-01 1.8810836877358750e-01 1.2845301860610586e-01  -2.8551226191302037e-01 5.4184205545426378e-01 2.0513597390488175e-01  2.1612171201001878e-01 -1.6171311887452416e-01 1.3788120631316780e-01  -4.1182296845025147e-02 -4.6865514615700532e-01 -4.8816980789947395e-02  -1.1242341967332933e-01 -2.4724569876855354e-01 -5.7799500513864330e-02  -3.6745063242826886e-01 2.8317040642781449e-01 -3.0440243917139470e-01  -4.4115881066937118e-02 4.9809219985735800e-02 2.6280330871900938e-02  -6.4953911065273581e-02 -8.6657240726497400e-02 4.5025306186048039e-02  -1.5550154425025489e-01 -2.3664909629900902e-01 -4.4199944273035204e-02  4.9743624676927424e-02 -2.3505007824557958e-02 1.4469665695834372e-01  4.0787594437919475e-02 1.3233894591899267e-01 3.2401300210435874e-01  1.8280602156933931e-01 4.0892216532538283e-03 4.0809145367444355e-01  2.2338642978062581e-01 -5.5408481613638878e-02 3.9061698655969079e-01  -3.4759830261895652e-01 1.6012104708164662e-01 -1.9899833404942148e-02  -2.9357449794979462e-01 6.5866867355235031e-02 -4.0950336939497796e-02  5.3751015525915116e-02 -2.3540241241053636e-01 1.2803797146007684e-01  -1.4691631900313973e-01 -7.5426852994962559e-02 5.0166393105990448e-04  -1.7136296961388056e-01 7.9128923961881203e-02 -1.2433027426629280e-01  -4.0709838294020945e-02 -1.6882586311325792e-01 -1.0153933322528197e-02  2.1780280150133968e-01 -8.1829196824847825e-03 3.4243883006875592e-01  -1.5926702541715290e-01 -2.8804525811745263e-01 7.0511112156583983e-02  -3.7887123700197783e-03 1.2953138714269008e-01 -1.6283603946034766e-01  -3.2744942943131472e-01 3.0072257391474705e-01 -7.1063397449587951e-02  -2.5072312725278079e-01 5.3431159674822114e-02 2.7431698865279619e-01  -2.6222603022714785e-01 -1.9646945895432425e-02 3.1888184508650425e-01  -1.4042277783523874e-01 2.2595255309103027e-01 -5.9500658335630549e-02  -2.7153677467247561e-01 1.5903673508283830e-01 -1.6317589642603328e-01  -3.1503262271099591e-01 -2.0781686318401060e-01 -8.2055679025814524e-02  -2.3331439100818507e-01 -1.6018669287210230e-01 6.2268923675515536e-02  -2.1123737977621779e-01 2.3163295072499111e-02 1.4524045700025318e-01  2.1978956676001182e-01 -3.7434494478434005e-01 2.8853512690067312e-01  4.6619561603659689e-02 -1.1567113335835164e-01 1.0071207865546673e-01  -7.1470797227771669e-03 -4.2754059578708353e-01 -4.3094177619542151e-02  2.5106577016092446e-01 -1.5135257840447863e-01 -8.2144890281144772e-02  4.5464976804147639e-01 9.6436387296630031e-03 -2.0230055613343234e-01  -7.9527547555709524e-02 -8.5257559064059671e-02 2.6820293003361792e-02  -2.0910422477451501e-01 1.4794390133062993e-01 -1.0768330737507434e-01  -1.5485300111587502e-01 1.9430065874744501e-01 -1.5988228680051786e-01  -5.7028992832639366e-03 1.3614003208983785e-01 -9.4987387737340986e-02  -2.0827179669208312e-01 5.9524578686344261e-03 -4.4449563592433994e-01  -5.3771038710113163e-02 -1.2608093246494473e-01 -9.5111070501189346e-02  1.5889099394743861e-01 -1.7405876777741047e-01 -2.8198464181784223e-02  -3.8898078161573486e-02 -1.9034480725339023e-01 -5.8369770675479549e-02  -2.2769155648415162e-01 -6.0708565302520057e-02 -9.6572908909736549e-02  -3.4349513710236458e-02 -7.7093574477084328e-03 -2.0488384956959310e-01  -1.5684753192045908e-01 -7.6169889068345376e-02 6.3525418057291408e-02  1.1666777239614921e-01 -1.4846442691146849e-01 3.1615668887055004e-01  2.4481638645240755e-01 -6.9789533351077904e-02 2.2773511985911885e-01  2.3241545745110434e-01 -1.0183231645960827e-03 -5.9815658934542056e-02  -3.1505705963782618e-02 2.7788827673605531e-02 -1.3630697680195925e-01  -3.5062590937829519e-01 -1.2607790071866642e-01 -6.1691344481657133e-02  -7.2607974258901559e-02 4.0489489635771321e-02 2.8733125808337982e-02  -4.5969843967589068e-02 -7.8158636057477915e-02 -4.2413245188795433e-02  -2.5364540178407488e-02 -1.2627541665591983e-02 -4.0477057750174079e-02  -5.7363041858822343e-02 -7.9764971006410050e-03 6.0767386809067268e-03  2.6952629236635911e-02 -1.6376721157625201e-02 4.5902930310341400e-02  1.3055851302136789e-01 1.9991858621624681e-01 -2.1943267252606205e-01  2.0357833454103375e-01 1.1055153799835880e-01 -1.7222955234752896e-01  1.4888770228407849e-01 -1.3831694897759605e-01 -1.8981617922927993e-01  4.7471615744484483e-02 5.0733199585454858e-02 -1.8360942847875136e-01  -7.2964942027395466e-02 -1.4567760906067287e-01 -3.9626724458852007e-03  -2.3215678359505515e-01 -1.6722182841587391e-01 2.2185405604334063e-01  -1.4418873834048260e-01 -3.8034470546592980e-02 1.2760064564354903e-01  1.2726701587397973e-01 -2.0216601404024121e-03 -1.5015943794412953e-01  -3.5726986595407816e-02 -1.5306095712346787e-01 -6.3334657798386318e-02  2.3825215635903241e-01 -4.1691790767077082e-02 -1.9115407863121894e-01  -2.5099846037172319e-02 4.6268141946148983e-01 2.6055601378862558e-01  -4.1559139744807533e-01 3.1864320623580866e-01 2.7536787239571836e-01  -1.6705245373634886e-01 -6.1175398073886542e-02 -2.9844357112474468e-01  -4.0872761533104388e-02 -5.1193430628932141e-02 -1.7902412581456920e-01  -1.8531466682916878e-01 -9.1720363322451509e-02 -7.6349865195072933e-02  -3.1906120767271978e-01 -1.6624520136849461e-01 1.2499364470633297e-02  -1.3885589488586675e-01 6.3421034068675247e-02 3.9391194443482230e-01  1.1510510323796717e-02 3.1187443335990461e-01 1.0588694469236444e-01  -4.2981430124327474e-01 4.5134184807819777e-02 -1.0796083555929151e-01  -3.4246494413743916e-01 -2.3623961029386803e-01 1.4967822679623921e-01  -2.5504419857864780e-01 -4.0080949557575379e-01 2.2473599505006239e-02  1.1848903137789150e-01 4.0909212218346103e-01 5.0664328933379792e-02  -1.1022396740888851e-01 8.3135606064697373e-02 -9.5164491168813412e-02  -3.0845160289824503e-01 6.9909833778218777e-01 9.9295882450212624e-04  -5.3383157653689328e-01 2.8807009308856740e-01 -1.1179300146255169e-02  2.8182402445598473e-03 1.2136122151913559e-01 -1.1101192398788498e-01  -1.4872057955485848e-01 -5.1611582136666487e-02 -3.1954861022150965e-01  -7.0562112158912019e-02 1.4705412342046970e-01 4.1155903076378092e-01  1.4370200866095209e-01 -9.5578956018145325e-02 2.3123178167794858e-01  6.5060962840344863e-02 -1.2412443062920125e-01 -9.2235205269638274e-03  3.5958934173863047e-02 9.6350794098635492e-02 -9.6591381842398891e-02  3.1763386936642757e-01 1.8383750593880679e-01 -1.0073935358530903e-01  2.8599500299238595e-01 3.4407763138749248e-01 2.0333903901217809e-01  3.2553379313043079e-01 -1.2273597507144528e-01 4.4481616548272339e-02  2.7150253521854229e-02 -2.7688161821015744e-01 1.7697768531371114e-01  -7.8698127500962015e-02 3.1262681741432585e-01 -1.4149512754333313e-01  6.3854857775198434e-02 -1.3393907956793066e-01 8.0904134220429922e-04  1.1895534370671522e-01 8.5876435452846220e-02 1.4300327202212129e-01  1.4346900133053736e-01 -1.5580406772625444e-01 3.1683997857959709e-02  -1.9670921209133524e-02 1.1593840274487088e-01 3.1840968184144947e-01  -1.1914123373916029e-01 2.8336932476628279e-01 3.4981838219243627e-01  4.1047239238269070e-02 1.3381108449652196e-01 -1.1508275975920849e-01  6.5689334317052248e-02 -1.7024312620781416e-02 -6.6322882181404197e-02  1.8544535587535296e-01 -8.9980225274713041e-02 -1.0127564482597894e-01  1.0993737996382946e-01 -9.3941292922839981e-02 -1.6187114498767052e-01  -1.1876078761824796e-01 1.7541090228929851e-01 -5.9847675195946748e-02  -2.6962264855820872e-01 2.9547893126732755e-01 2.4605279420865869e-01  -1.4279793739961896e-01 6.1559681906261800e-02 1.6762427807475119e-01  1.4662208490587417e-01 4.3500991424537602e-03 2.3666786576391141e-01  -8.5344373422525308e-02 8.3737063850952392e-02 2.7659224414691269e-01  -2.8563936110288440e-01 9.0473383867615553e-02 3.4973702613702690e-01  -4.8179275576788569e-02 9.6474118041885715e-02 1.480514269801