<?xml version="1.0"?>
<VTKFile type="UnstructuredGrid"  version="0.1"  >
<UnstructuredGrid>
<Piece  NumberOfPoints="3594" NumberOfCells="14547">
<Points>
<DataArray  type="Float64"  NumberOfComponents="3"  format="ascii">0 0 -4000  0 250000 -4000  250000 0 0  250000 250000 0  135000 0 -60000  135000 250000 -60000  250000 0 -60000  250000 250000 -60000  65308.5 173604.8 0  78441.2 185529.2 0  65707.89999999999 168017.6 0  73555.60000000001 174095.8 0  61257.8 157386.9 0  65291.6 154352.5 0  82112.3 172814.3 0  58804.1 138685.6 0  106822.8 190893.8 0  60152.4 136426.2 0  144960.9 230041.9 0  88660.10000000001 163931.9 0  134829.2 208246.3 0  82409 149993.8 0  65214.4 127836 0  67249.7 122418.9 0  91916.7 141284.3 0  125498.1 99698.5 0  111195.9 162013.4 0  92905.39999999999 131283.2 0  77176.5 109747.4 0  90809.3 124059.5 0  107806.1 141615.9 0  104439.5 126126.3 0  137051.8 160541 0  118095 132800.4 0  82238.39999999999 90851.5 0  84123.2 92291 0  98197.5 105309.4 0  105163 104713.8 0  154799.8 153672.9 0  133655.9 122823.1 0  111467 94557.3 0  106995.1 77971.8 0  149450.7 123239.8 0  192061 157764 0  133903.2 45232 0  140000 0 0  136000 250000 0  9714.285714284615 250000 -3714.285714285747  19428.57142857481 250000 -3428.571428571329  29142.85714285597 250000 -3142.857142857177  38857.14285713715 250000 -2857.142857143025  48571.42857141832 250000 -2571.428571428873  58285.71428569948 250000 -2285.714285714721  67999.99999998066 250000 -2000.000000000569  77714.28571426184 250000 -1714.285714286416  87428.571428543 250000 -1428.571428572265  97142.85714282417 250000 -1142.857142858113  106857.1428571053 250000 -857.1428571439606  116571.4285713865 250000 -571.4285714298085  126285.7142856677 250000 -285.7142857156564  250000 240000.0000000016 0  250000 230000.0000000032 0  250000 220000.0000000048 0  250000 210000.0000000064 0  250000 200000.0000000079 0  250000 190000.0000000095 0  250000 180000.0000000111 0  250000 170000.0000000127 0  250000 160000.0000000143 0  250000 150000.0000000159 0  250000 140000.0000000175 0  250000 130000.0000000191 0  250000 119999.9999999916 0  250000 109999.9999999825 0  250000 99999.99999998408 0  250000 89999.99999998568 0  250000 79999.99999998725 0  250000 69999.99999998885 0  250000 59999.99999999045 0  250000 49999.99999999205 0  250000 39999.99999999366 0  250000 29999.99999999526 0  250000 19999.9999999968 0  250000 9999.999999998399 0  130000 0 -285.714285714285  120000 0 -571.4285714285701  110000.0000000001 0 -857.1428571428546  100000.0000000001 0 -1142.857142857139  90000.00000000017 0 -1428.571428571424  80000.0000000002 0 -1714.285714285709  70000.00000000025 0 -1999.999999999993  60000.00000000026 0 -2285.714285714278  50000.00000000023 0 -2571.428571428565  40000.00000000019 0 -2857.142857142852  30000.00000000015 0 -3142.857142857139  20000.00000000009 0 -3428.571428571426  10000.00000000004 0 -3714.285714285713  0 9999.999999998096 -4000  0 19999.99999999726 -4000  0 29999.99999999545 -4000  0 39999.99999999275 -4000  0 49999.9999999912 -4000  0 59999.99999998965 -4000  0 69999.99999998808 -4000  0 79999.99999998655 -4000  0 89999.99999998501 -4000  0 99999.99999998347 -4000  0 109999.9999999819 -4000  0 119999.9999999804 -4000  0 130000.0000000079 -4000  0 140000.000000017 -4000  0 150000.0000000155 -4000  0 160000.000000014 -4000  0 170000.0000000124 -4000  0 180000.0000000109 -4000  0 190000.0000000093 -4000  0 200000.0000000078 -4000  0 210000.0000000062 -4000  0 220000.0000000047 -4000  0 230000.0000000031 -4000  0 240000.0000000016 -4000  134615.5786831678 8376.221222376078 0  129135.8381374389 16690.61556165003 0  123693.3119097638 25029.34528065769 0  118458.7304757098 33499.41630675747 0  114183.5561631282 42453.40693221996 0  117152.9012549134 51656.5775220433 0  109640.5189223821 56772.26946740811 0  99783.22349336625 58163.79074226946 0  89906.64048415456 59427.041153887 0  80231.83368741472 61714.93090982783 0  73457.07599492084 68333.04562829909 0  74666.1562536891 78126.62096439983 0  77477.57171300898 87678.05180735435 0  78461.83411646895 97534.63399308435 0  75049.04009726809 106816.2708870931 0  69538.50964765088 115103.6313494232 0  63598.75337311435 123095.8011052612 0  58118.08704720287 131402.6075281692 0  54672.56885839759 140685.5429709587 0  54507.01644649181 150612.6283068675 0  56360.01451579022 160386.8607035369 0  59277.85033353963 169905.2699317088 0  62638.60576621335 179274.2426304358 0  68212.99295126265 187459.3754999009 0  75814.40529046141 193858.3467082375 0  84761.00503602097 198204.6515231062 0  94061.92665129391 201734.182040823 0  103676.4565927747 204325.1412130333 0  112974.540309108 207830.3235759034 0  118972.4630267572 215380.3369922852 0  120264.8170507578 225241.997356352 0  123444.1757132735 234565.2722630062 0  129527.245366261 242435.1534677757 0  250000 250000 -9999.999999997535  250000 250000 -19999.99999997662  250000 250000 -29999.9999999377  250000 250000 -39999.99999995799  250000 250000 -49999.999999979  250000 240000.0000000016 -60000  250000 230000.0000000032 -60000  250000 220000.0000000048 -60000  250000 210000.0000000064 -60000  250000 200000.0000000079 -60000  250000 190000.0000000095 -60000  250000 180000.0000000111 -60000  250000 170000.0000000127 -60000  250000 160000.0000000143 -60000  250000 150000.0000000159 -60000  250000 140000.0000000175 -60000  250000 130000.0000000191 -60000  250000 119999.9999999916 -60000  250000 109999.9999999825 -60000  250000 99999.99999998408 -60000  250000 89999.99999998568 -60000  250000 79999.99999998725 -60000  250000 69999.99999998885 -60000  250000 59999.99999999045 -60000  250000 49999.99999999205 -60000  250000 39999.99999999366 -60000  250000 29999.99999999526 -60000  250000 19999.9999999968 -60000  250000 9999.999999998399 -60000  250000 0 -49999.99999997466  250000 0 -39999.99999999574  250000 0 -30000.00000007532  250000 0 -20000.00000005069  250000 0 -10000.00000002534  240416.6666666667 0 -60000  230833.3333333333 0 -60000  221250 0 -60000  211666.6666666667 0 -60000  202083.3333333333 0 -60000  192500 0 -60000  182916.6666666667 0 -60000  173333.3333333333 0 -60000  163750 0 -60000  154166.6666666667 0 -60000  144583.3333333333 0 -60000  240416.6666666667 250000 -60000  230833.3333333333 250000 -60000  221250 250000 -60000  211666.6666666667 250000 -60000  202083.3333333333 250000 -60000  192500 250000 -60000  182916.6666666667 250000 -60000  173333.3333333333 250000 -60000  163750 250000 -60000  154166.6666666667 250000 -60000  144583.3333333333 250000 -60000  135000 240000.0000000016 -60000  135000 230000.0000000032 -60000  135000 220000.0000000048 -60000  135000 210000.0000000064 -60000  135000 200000.0000000079 -60000  135000 190000.0000000095 -60000  135000 180000.0000000111 -60000  135000 170000.0000000127 -60000  135000 160000.0000000143 -60000  135000 150000.0000000159 -60000  135000 140000.0000000175 -60000  135000 130000.0000000191 -60000  135000 119999.9999999916 -60000  135000 109999.9999999825 -60000  135000 99999.99999998408 -60000  135000 89999.99999998568 -60000  135000 79999.99999998725 -60000  135000 69999.99999998885 -60000  135000 59999.99999999045 -60000  135000 49999.99999999205 -60000  135000 39999.99999999366 -60000  135000 29999.99999999526 -60000  135000 19999.9999999968 -60000  135000 9999.999999998399 -60000  9760.266420117418 0 -5952.053284023483  19520.53309387125 0 -7904.10661877425  29307.1102415074 0 -9718.421407375839  39104.7333719938 0 -11473.30036109216  48875.83924532436 0 -13369.19882213981  58571.87012930932 0 -15613.67939664691  68124.11986543986 0 -18408.53002372226  77527.76485865096 0 -21667.33907869995  86719.09466349281 0 -25482.98540480309  95631.92793098884 0 -29908.59492259344  104180.5528547143 0 -35003.66989024555  112449.6580983703 0 -40542.62450796275  120509.52686276 0 -46382.42388125008  127994.6878848568 0 -52930.54997290741  9760.266420117418 250000 -5952.053284023483  19520.53309387125 249999.9999999999 -7904.10661877425  29307.1102415074 250000 -9718.421407375839  39104.7333719938 250000 -11473.30036109216  48875.83924532436 250000 -13369.19882213981  58571.87012930932 250000 -15613.67939664691  68124.11986543986 250000 -18408.53002372226  77527.76485865096 250000 -21667.33907869995  86719.09466349281 250000 -25482.98540480309  95631.92793098884 250000 -29908.59492259344  104180.5528547143 250000 -35003.66989024555  112449.6580983703 250000 -40542.62450796275  120509.52686276 250000 -46382.42388125008  127994.6878848568 250000 -52930.54997290741  145499.999999982 250000 0  154999.999999964 250000 0  164499.999999946 250000 0  173999.999999928 250000 0  183499.99999991 250000 0  192999.9999998977 250000 0  202500.00000009 250000 0  212000.000000072 250000 0  221500.000000054 250000 0  231000.000000036 250000 0  240500.000000018 250000 0  240000.0000001065 0 0  230000.0000002129 0 0  220000.0000003194 0 0  210000.0000004258 0 0  200000.0000005323 0 0  190000.0000006387 0 0  180000.0000006325 0 0  170000.0000004744 0 0  160000.0000003162 0 0  150000.0000001582 0 0  81541.63335874674 35498.13281562441 -1158.202651726381  46004.68664141578 194254.3443995834 -2060.726341037222  32687.99629987251 175105.6839569158 -2219.415882311186  36663.59507600099 63079.34846719183 -2167.093431592842  52002.09530018299 134928.3526843132 -266.7613614382204  59599.13772899003 109177.3480854863 -691.4602217251189  13806.90843888927 84795.87142461444 -3288.608480833754  42042.1003123136 65482.76889364541 -1784.344992951069  85917.78356508871 211210.3489857896 -1084.187284676976  26344.15959288631 140617.4121347481 -2112.437398247788  49350.86723141051 36336.78604214006 -2272.704599832591  21702.40331646254 119880.0690882354 -2466.437976166102  57313.56589490068 220733.4025395545 -2090.49117424689  28866.73893404105 218351.493928639 -3037.311471166797  64300.33793173476 48969.94193502321 -1793.328299662734  52482.25996720623 28090.02703717845 -2196.191483315934  63095.9704402233 54899.2587271606 -1627.600015239288
[...]
<PointData  Vectors="sample_prior"> 
<DataArray  type="Float64"  Name="sample_prior"  NumberOfComponents="3" format="ascii">6.8768315698777605e-01 -2.4376395900174264e+00 -3.2129928993135959e-01  -6.0732042908604456e-01 1.2986142197656306e-01 -3.6659693882002381e-01  3.5910286948415204e-01 -3.6943576855884463e-01 -5.3128751515909844e-01  -7.1571242205268792e-01 2.2491623808940175e-01 -7.0070894708967524e-01  1.5902677909764940e-01 -3.7290647432999736e-02 -2.8141575087101290e-02  2.8064298464250254e-01 -1.2314614770579091e-01 -1.8941733915358180e-01  2.8614534023371868e-01 -3.3602368317917519e-02 -3.8612352425597581e-02  3.1638928689822748e-01 -1.8654564822312344e-01 1.5434191777434444e-01  -1.0639662151126532e-01 1.3656842886681342e-01 1.1513004292873405e-01  6.9997163455127923e-02 -1.5538628942863560e-02 -2.5249514020127400e-01  -1.4549978264635999e-01 -2.1093975083019224e-02 -3.2630526942577252e-02  -2.1635392626080110e-01 1.8978186478695760e-01 -9.5592447304920697e-02  -1.5687717850113841e-02 -9.4477400803974453e-03 1.8609912243693882e-01  -8.3209781309728614e-02 -9.1101873140046502e-02 1.1915568420471595e-01  -8.5691074147140472e-02 -1.5846251001846556e-02 -1.7960352549307129e-01  -1.9447233903216621e-02 -1.7853479736577765e-01 -3.2815567604442109e-01  -1.4291538373391305e-01 1.8484565013195187e-01 -2.2042938747316285e-01  -1.7342843936515306e-01 -9.9340724165584524e-02 -2.7936824242371366e-01  -2.2195423935332553e-01 7.0438747347493821e-02 -2.9432941299484788e-02  -1.1704686655879021e-01 6.1197499928275570e-02 -2.7267320759210272e-02  -1.5481748446130872e-01 -9.8331478705509665e-02 -1.6817656905460304e-01  1.2910920516981367e-01 8.6592384456537760e-02 -1.0935556085217594e-02  -2.4305121861735260e-01 -3.0479970313217988e-02 6.6437606114541289e-02  -1.5193370534014811e-01 -7.3868359960346228e-02 -1.2113598733376248e-01  1.9302438048314402e-01 -2.1932777894946029e-01 6.4681740604099300e-02  -2.4670030330914937e-02 -1.5327492665747736e-01 -3.8710178628967269e-04  -1.2876874874620506e-01 -2.2089899584508957e-01 -1.2157501506898369e-01  -7.2629892805120305e-02 -1.2088206758945964e-01 -2.0371129562272678e-02  7.4857824066235326e-02 -3.2892546177302848e-02 -9.7625791293441788e-02  -5.1277301873398150e-02 -2.2947087614649603e-01 -1.6525991291302269e-01  -8.5686636901880886e-02 9.0720280772760689e-02 1.1591235217775096e-01  -2.0756050788715058e-01 1.6013567704708079e-01 -2.5131931273250012e-03  -1.4310267322354214e-02 8.3643131444207972e-02 7.6588524625226168e-02  -8.1322788354195638e-02 -1.2089084907551497e-03 2.8040532231025905e-01  1.1870188248173594e-01 -1.5298085225695146e-01 -1.2960147746634607e-01  1.8029586632271974e-01 -3.7326888997559843e-01 -1.3070772737321387e-01  1.4384987561964363e-01 1.7846632844310995e-01 1.3167192192188423e-01  -9.8628664041552100e-02 7.1707800949606493e-02 3.7816741383865254e-01  4.6071426091951632e-02 1.2682803150970737e-01 9.8245027971992239e-03  -9.3327008565344330e-03 -7.2405752459229256e-02 -1.0719411421574250e-01  -4.2936721813968355e-02 2.4510382709899928e-02 1.1838249323049854e-01  1.1747342605228303e-01 4.7371290498057043e-02 -9.9114247022879493e-02  -1.4553213733048942e-01 2.9657957515090160e-02 5.0035398857174257e-02  7.4797658826854185e-02 9.1705977822525951e-03 1.1783687846338022e-01  -7.0659160145307542e-02 5.1140141899801332e-03 4.7948072488674639e-03  3.7090382509902586e-01 1.3566405529802289e-01 -5.6024320086242821e-02  8.1994302991441725e-02 8.0970175672155471e-05 -1.3112915639995608e-02  8.6306613456570036e-02 -5.1070336749653256e-01 -3.1873664446638211e-01  2.7110586067201548e-01 1.9642059052827546e-01 2.2426684665765717e-01  9.1993725847114807e-02 3.5546993597904974e-01 -7.7148980056021554e-02  1.7803936056273018e-01 -2.9192474598197481e-02 1.9873241991756352e-01  3.3343839345002439e-03 6.9300796048686081e-02 2.2906378667443089e-01  1.3970883436479942e-01 3.2093527543568434e-01 1.3837326570986033e-01  -5.1251757847581536e-01 2.0091840837443586e-01 -7.9819038380843935e-02  -1.9678922271588004e-01 2.4351912368762574e-01 -1.1368342150188813e-01  2.7146569938861980e-02 -4.2120637358633008e-02 2.6703632827350854e-01  3.7246255645645654e-01 7.4497201343828187e-02 1.0428881675353274e-01  2.0762824003005673e-01 -1.2804922920606829e-01 1.7575672903692172e-01  1.7553414319191377e-01 -6.7447631653972689e-02 -8.1741717493936869e-02  6.6506571965356462e-02 1.4645483001500789e-01 2.0656934883728520e-01  2.1891529567793441e-01 2.4980443052311205e-01 -4.6366894109719736e-01  2.0215039614521907e-01 2.8711425664443610e-02 -1.2198189309546764e-01  3.3836665117870326e-02 -1.0847996969213428e-01 8.5459935573184542e-02  7.6755920450571433e-02 -2.7003831366408071e-01 -2.8534888783478618e-01  -3.8907003626885339e-01 -8.7795155471540598e-02 -1.4000968534659250e-01  -4.0981466654218773e-01 1.3081180309412987e-01 3.3282052559160591e-01  -1.2891963852818969e-01 1.1022240315939077e-01 1.1883187404877450e-01  1.3241155504370048e-02 6.0031138458322308e-02 3.3332761100357766e-01  2.5518173340751571e-02 -1.6186317468697822e-01 -2.4102346131946531e-01  2.0393633886452014e-01 2.3195511285281623e-01 -6.8101072739308252e-02  -2.0031364913600230e-01 1.2769835379512634e-01 -3.6165929215827025e-01  2.4047853961474297e-02 2.7016322622028499e-01 4.0782260812038951e-02  5.7179031159818088e-02 -2.9111495468240156e-01 1.9995990638557046e-01  -2.3207896143499968e-01 -3.2029732604146488e-01 -1.2106877052413548e-02  1.2343889351506607e-01 -1.4400788236604395e-01 8.9183376946538329e-02  1.1132500745862529e-01 1.0335701606095161e-01 -1.0175517199650139e-01  -5.6012771259112748e-02 3.0773242101415371e-01 -3.6213206304390060e-02  -1.5569941502298759e-01 6.1862131710281348e-02 -1.1709326412113180e-01  -3.1939648219742911e-01 2.6965290034772001e-02 -8.0509897477768155e-02  -2.2594416776562881e-01 4.3295674387867486e-03 -1.1429758094961974e-01  7.3040975664789787e-02 1.0706104304083508e-01 -7.9311486727112829e-02  3.1684918169646054e-01 2.6696760555342997e-01 4.4735420520711755e-01  -4.0124431425451118e-01 -1.2109835699243710e-01 1.7372216552827205e-01  6.3746138194016614e-03 -1.2055848712598632e-01 -2.2964465010322421e-01  -3.4651836390000891e-02 -3.8851650803290477e-01 8.4186862365101409e-02  -2.5206776579832552e-01 -2.1436760221315207e-01 1.5707618099009821e-01  -3.1672649425026994e-01 1.1028341173010010e-01 2.1102606169059163e-01  -2.2100811622298472e-01 8.8414224865432892e-02 3.4892717824805719e-01  -1.4312844019773407e-01 2.1766034568799569e-01 1.3162122446133898e-01  -2.1789632047272613e-02 -4.4808529490444476e-02 1.0662033192423373e-01  1.5552418689300609e-01 -2.6773235746683283e-01 2.5135162795230992e-01  3.0812061104537863e-02 1.9810276401217214e-01 -4.0323232820585302e-02  -8.7258076913017651e-02 3.1505555125822493e-01 2.1082191599587130e-01  -3.0658370610767238e-01 3.8232462568674853e-04 3.4271674233598637e-01  -1.8884047385322245e-01 -1.3318120320394961e-01 -2.2101322243672780e-01  -1.6548304509418324e-01 -3.0031128581069366e-01 -3.3189400429542049e-01  3.2156689967749313e-01 -1.1821606868399659e+00 -1.1144708235986168e-01  3.6451504546691349e-01 -6.7685595802636400e-01 -1.7468325329460369e-02  1.3931952999695874e-01 -5.4455224127823476e-01 -3.0841257885851814e-01  -7.5146224603773604e-01 1.0197949334851528e-01 5.8645873023388206e-01  9.9728088262060186e-02 -2.1055943744509667e-01 8.0081533247583314e-01  -3.5801720098123152e-01 -1.0957597767480820e+00 3.0735794570703429e-01  -2.1724057412524456e-01 -1.9797684183207653e-01 -4.6478670702412417e-01  -5.3529204244030426e-01 -6.5169108954782307e-01 9.7693782214469629e-02  -5.1676547823204588e-01 -9.8267364965054016e-01 1.8317365951388040e-01  -8.8490721573548009e-02 -2.7013732907467025e-01 7.4691885143162481e-02  -3.5940941740211907e-01 3.1234901759492201e-01 5.9996938999115394e-02  -5.9558835379444919e-01 -1.8988645063207327e-01 -3.2661416737638133e-01  -3.4383955720475867e-01 1.1357640172016144e+00 1.7903003570977048e-02  -1.2758367186533309e-01 7.6078788379693663e-01 5.0486777201449096e-01  -4.2674576320737800e-01 3.7022698390115738e-02 5.2270729936717375e-01  1.7669663044018763e-01 -1.2578462296838361e-01 -4.2417179616950927e-02  4.7085531291677979e-01 -3.3585292258323636e-02 -5.8305225478798328e-01  4.1803246956701023e-01 -6.7305511130612261e-01 -6.9452865662459651e-01  -4.1302781267018707e-01 -5.3650563100116877e-01 -6.8352543786506281e-01  -5.2685206661648964e-01 1.1895188836152293e-01 3.4538492140975507e-01  -6.9692343524847522e-01 -4.0444941709988774e-01 -1.3570291992008462e-01  2.0812826567466004e-02 -3.5926812470455161e-01 -1.8484858570080684e-01  -2.9091667262102444e-01 2.4121226790474043e-01 2.0797471797749972e-01  4.2554652827525885e-01 4.3290446718103442e-01 2.4642472517357755e-01  3.1981307021937194e-01 -4.7465297283126517e-01 3.9760196279428853e-02  3.0997523528863435e-02 -4.7102754234298633e-02 7.3804076653077505e-02  -5.1368571836020886e-02 -4.0533703457038975e-03 8.8318637022647056e-02  9.6641283145377510e-02 4.8724773065009677e-02 3.0059725989054212e-02  6.1115910691078128e-02 1.1232708503378539e-03 3.4111343434965430e-01  -8.5261616081075867e-02 -3.1526817065611235e-01 1.1535951900900261e-01  -4.9084614826716035e-02 5.8829614524606694e-02 3.0011236061911400e-02  -2.7742941008256217e-01 -1.2074145478065616e-01 -2.6136510699757776e-01  -1.0027989960470586e-01 1.2725820571619387e-01 -1.3036173278474034e-01  -3.0504379553192098e-02 -1.4068760086972643e-01 -5.9253931264935042e-02  -1.9532895773452438e-01 -2.3243908568150318e-01 -7.3606017144180830e-02  5.2818917836615797e-02 -1.4233919404559173e-01 7.7539644254472545e-02  8.2272545428812793e-02 -5.8465591260313331e-02 -1.4132990188215303e-01  1.7217560252066777e-01 3.1908388701352916e-02 -1.8908398857662706e-01  1.4809203135072374e-01 -2.1993998458326997e-01 -1.5570022892097532e-01  5.7959537161120248e-02 -1.8052012398785355e-02 8.0381292254133888e-02  3.9228518080045918e-02 1.0401079881719332e-02 -2.0570509237799139e-02  -1.9891825560599860e-01 -7.2539937541235833e-02 -6.8098431248389976e-02  -1.2522852025728395e-01 9.4054782231072789e-02 -2.0722108310387666e-01  -1.0141246024615651e-01 -1.2423532805798447e-01 -3.7870287405227060e-01  -1.7563349437983461e-01 1.2601435527120933e-01 -2.8221095084062892e-01  -8.3883960954939565e-02 -5.3622107594440249e-02 -4.9050010206355299e-02  -1.2030031941161205e-01 -1.6014794977973784e-01 5.5797406531607925e-02  1.4146015874277632e-01 -5.7758266204097873e-03 9.4950359928199377e-02  6.1356508788292744e-03 -3.5380791071840355e-02 -1.9572267469589791e-01  1.3276617178269237e-01 -1.4513714588569529e-01 -2.1563303153527175e-01  5.2376657280605775e-02 -1.4225651312062895e-01 -6.2998340783701992e-02  -1.6892658474662179e-02 1.5555872997003026e-01 -1.0267812452214585e-01  -2.4671194484041734e-02 1.0253099531246694e-01 -2.1185423878600063e-01  6.3776332909264391e-02 -1.9515787914122409e-01 -7.2917098638723643e-02  2.4491790561045116e-02 7.5968562776064508e-03 -1.7749860016309068e-02  5.6746102304575566e-02 -1.7542448452019105e-01 6.3792572440241821e-02  1.2776857902158834e-01 4.3330885568960954e-02 2.7396012194214579e-02  8.5869058635095183e-02 7.1740058895107012e-02 2.6939425373430098e-01  -1.6268440316703245e-01 -2.4214372909559026e-01 -8.6860029297829364e-02  -3.9721218118383229e-02 -2.1588266089360274e-03 1.3443348016826320e-01  1.0918672992787284e-01 7.6183269743157478e-02 2.1808255021782319e-01  -1.0257443386245160e-01 5.9404227699363465e-01 -1.6128885312461864e-02  4.3086150591430117e-01 1.5580644903291241e-01 1.6487580444656719e-01  -2.5657458153893201e-02 1.1407682109999566e-01 -1.1177990297540723e-02  1.9136978283582182e-01 -1.5948494271620595e-01 -4.8978747438566221e-02  2.7471419724124851e-01 7.0190143932479382e-02 -7.8867320274250127e-02  1.5657554809242488e-01 -1.2299097130708284e-01 -1.2284296165031922e-01  1.8292546778309032e-01 1.8956638000024915e-02 9.2127485890426936e-02  1.4462999900828633e-01 -8.1608315735329853e-02 3.9367516527466180e-02  -1.9925987491110514e-01 -6.1699749527011336e-02 3.2384491038793212e-01  -1.7713449556986772e-02 -3.3820880488488782e-02 1.7016355265338215e-01  -7.3527112302180606e-02 -1.4372857662285302e-01 -1.2701573538684471e-02  -8.3844281923278349e-02 6.9039347721534059e-03 -1.2674567670543613e-02  3.0839759484776941e-01 -8.2573321871398597e-02 7.8003074244091572e-02  -1.9625350894768007e-01 -2.0705197320910601e-01 6.1468670243915426e-02  -2.1694908627264864e-01 -5.6998968300663488e-01 8.2890018008563909e-02  -1.2152725000873930e-01 -2.5932720503993006e-01 -1.4822070009777670e-02  2.4083152083850348e-01 -1.9820121726371023e-01 -8.2120263317768921e-02  5.7407613940861102e-01 4.3543452807409434e-02 -2.7059956377396688e-01  3.8882371440652458e-01 -9.9359492374455100e-02 -1.9530299933581924e-01  -2.1139547785691631e-02 -2.0937255231155771e-01 -2.8809158373878285e-01  8.7108102484967448e-02 -2.8427846832465592e-01 -4.1184540088015538e-02  -4.8135184174902139e-02 -5.7083169657592553e-02 4.3301299311391317e-02  4.7016040076104555e-02 3.1048457929110991e-02 4.1572979848103947e-01  -6.8350578578517965e-02 -1.1812399259003060e-01 -1.3643000980177536e-01  2.3359288553936097e-01 4.6329397564032579e-02 3.2202437836612637e-03  -2.5930737023070799e-01 5.1365380958670699e-03 -1.5172746374786830e-01  3.9264185797687068e-01 -3.8442072390459414e-01 -1.4398221471315897e-01  -2.6641490052519190e-01 2.1370732875318876e-01 1.3336518266299832e-01  -2.3013575548134116e-01 -1.5873186763856356e-01 -1.1849514277653257e-01  6.5351947097092633e-02 -2.9280825991079962e-01 -2.0911665208076580e-01  2.1116656876075623e-01 -1.6148168597487514e-01 -2.3092885245048211e-01  2.9847282987870333e-02 -6.4332775592462879e-02 7.8991042401185943e-02  -1.4769719050135324e-01 6.8826459847494123e-02 2.7517718105528121e-02  8.2103903570399775e-02 -3.0158837191886967e-01 -3.7811803916547554e-01  -8.1080814343694699e-02 -7.2426473080407949e-02 -6.4419321779927721e-02  -1.2410313821280805e-01 -1.3566504195321485e-01 2.0578046185824428e-01  4.4100379799332889e-01 2.9442020984044798e-01 1.8468772362623467e-01  1.0109915704172125e-01 3.7164991327113767e-01 2.0079343781691944e-01  -5.4244336685523108e-02 -1.5231535459245599e-01 1.7104053411734413e-01  -5.0713957602725224e-01 1.0372125113932652e-01 3.6508572668026651e-01  -3.0744203405722093e-01 3.0651023000338373e-01 -4.7409403290535126e-03  -1.1850443329474383e-01 -3.9640918274170163e-02 -1.2554266770212569e-01  -1.2977472594238335e-01 -1.3660059039971634e-01 -2.2664924904869585e-02  6.5938750942864926e-03 -2.5090389246286698e-01 2.8531996792570513e-01  1.0555664009713292e-01 -6.0085920606655213e-02 -3.3947132086006782e-01  -2.0418496033408107e-01 4.1352205007096199e-01 -3.8118887509419046e-02  1.9623450331300057e-01 2.5877228923502199e-01 -1.3400105718499955e-01  3.9248698812769289e-01 -1.8429212670761289e-01 1.2772920520021747e-01  -6.3229962036314979e-02 3.8715452659314357e-02 -5.7783973669360049e-02  -1.9362638367114279e-01 -6.7859731510811760e-02 -8.8572417582019544e-02  -9.6709494250063630e-02 -6.0684106734860181e-02 -2.2928501052806025e-01  4.2448290680196710e-01 -6.2537259302707898e-02 7.4827648414047612e-02  3.1323916630287141e-01 -6.1985360307403127e-02 3.2842373764510152e-01  2.8166302211755834e-01 -1.3678797131417705e-01 2.2945028881963228e-01  2.1060399190336941e-02 3.6502564937063060e-02 -2.6271197182133922e-02  6.9893603969701540e-02 2.6330284661066888e-01 -1.3655879882401717e-01  4.1310041428425391e-02 1.9279229991213162e-01 -1.8479603901824337e-01  2.0557098554153466e-01 5.7354084562478716e-02 -2.0390499399546513e-01  -3.3790729468043026e-02 1.4857519397661900e-01 -1.3794387139938949e-01  -8.0318745631193025e-02 1.6014711701040579e-01 1.8264064473334857e-01  6.7161032871739010e-02 2.6554881980139472e-01 6.3221460908142749e-02  -1.3690826600429482e-01 2.2696711564475511e-01 2.5086930435757765e-01  -3.4358220208334794e-01 -1.1245740351211110e-01 1.0908209267475817e-01  -4.6058278753073290e-01 7.4671365417574756e-02 -2.6666235368412991e-02  -8.7282829996733410e-02 -1.0857426889884601e-01 -3.9216603045348762e-02  -1.9027915784138004e-03 -2.6361395929160053e-01 -1.3058929894176025e-01  -4.1243423146877282e-02 -1.4321572742658734e-01 -1.5990300871038121e-01  -1.5908597270372907e-01 3.0912669323103700e-02 2.7642609408641539e-01  -9.4160179379002937e-02 -1.1462749799591292e-01 -3.7162902778790988e-02  9.0194811828228274e-03 9.8426928012880402e-02 -9.2738270954000709e-02  1.0310413734032016e-01 1.1696677970314470e-01 4.9501914200174246e-02  -8.2673335568714854e-02 -4.9693388129746711e-02 -1.1339353780097039e-01  -3.7025288964597142e-02 -8.9001977636339311e-02 -5.2883606850406169e-02  -2.3016324329803289e-01 -1.5473570376138826e-01 2.4067238401744090e-01  -1.1947049083408481e-03 9.3412993990405882e-02 2.8803637907902423e-02  -3.6013545630537554e-02 1.4469607128738848e-01 -1.0597646889594069e-01  2.1230448761525744e-01 1.2932660511492411e-01 -8.2316607834001868e-02  3.4512895272511912e-01 -1.2180820258590008e+00 -1.7918136449361124e-01  -1.7876255341762387e-01 -3.8289855598276445e-01 -2.3063363750550214e-01  4.6460537870621328e-02 -4.7770600054441786e-01 -3.1716117538073058e-01  1.0991132017743599e-02 2.3602164657726362e-03 1.3255078599703787e-01  -9.2857165030658315e-02 2.5027004890786703e-01 6.3356851542825873e-02  7.5525557086450659e-02 3.9133524320401109e-01 8.5100490564594705e-02  -2.2782836108016699e-01 2.9704812218593152e-01 4.9218601886870084e-01  -1.8896143827817016e-01 -6.2885504336936515e-02 1.5363878660596664e-03  -1.7490580279507012e-01 -2.3561000490775461e-01 -7.7426993159293661e-02  5.5766887425281866e-02 -1.7522027634318421e-01 1.3485882602441751e-01  -7.3952466759522925e-02 4.3409317490516248e-02 -5.5491960744117955e-02  7.1054766721576235e-02 5.7045072377675934e-02 1.8085223562781286e-01  -7.7071636696381493e-02 -3.3172630567892530e-01 -1.2065444034686339e-01  -8.9828042410288508e-02 3.4147140757856770e-01 -2.0629611469505466e-01  7.0059284755472503e-02 -4.9066474422491024e-01 -3.4899988534155302e-01  8.8261395131611645e-02 9.1552328591542470e-03 2.9603680425219342e-01  -1.8557727806047469e-01 3.9026257877952653e-01 1.2685857884808863e-01  1.1488615804722471e-01 2.3585357723646075e-01 1.2934637086486522e-01  2.3697189569697824e-01 8.8449586494323329e-02 1.4218042619189608e-01  4.5245351386286298e-01 4.3247052565628580e-01 1.9805056146119515e-01  -5.2247631630013600e-02 3.8090669157979434e-01 1.3031503094138619e-01  -1.9822577540076472e-01 4.0833851902192236e-01 -2.0817929721889231e-01  -6.8535369545712028e-03 -4.1556957267907868e-01 -1.6188856524451775e-01  -6.5324493451817095e-02 -1.8897560865568303e-01 1.6535210494643915e-01  -7.6920685188907753e-02 8.0945836817640886e-03 3.2245673501734107e-01  -2.9507416190022151e-01 -1.3501848111689624e-01 -8.5428752956083990e-03  -2.6998772465847576e-01 -1.9808352648432842e-01 5.2181471677308348e-02  4.5445863105026983e-02 -3.7178973382479857e-01 1.9123924804978282e-01  -1.6984504651063309e-01 -4.7890082315766261e-02 3.6533221291556717e-01  -8.7539733942232731e-02 8.8676590494766422e-02 2.2750350521739438e-01  -1.1912201906824273e-01 -5.9840821991727737e-03 2.3374464139263641e-03  2.6744073083698580e-03 9.1568034911164817e-02 2.6663489074365821e-02  3.0081512172844261e-02 -2.4683571516687430e-01 -6.4393796503352571e-02  2.5601585728056775e-01 8.1939996967130599e-02 -4.0392344342973438e-03  2.8145024348197245e-01 -2.1815495451683438e-02 1.4432331489330857e-01  1.0544069111104695e-01 -2.1166960834510036e-02 -6.2529497342256435e-02  1.1155985331055629e-01 -1.3937171450251570e-01 -6.8255184754612216e-02  1.7793527348797047e-01 -8.4995239802652375e-02 -1.0473504194880752e-02  -1.0578510877032415e-01 2.8000285221152521e-01 3.6806313686851944e-02  3.1755327226333985e-01 -1.5503440713715563e-01 -1.3636455072695372e-01  -2.9635775480532728e-02 -1.1929345202209274e-01 -1.3262137231575818e-01  3.6785589196332197e-01 -3.2332323775901689e-01 1.7160625876966432e-02  3.1768124755093824e-01 -3.9859509801483317e-01 3.0776160328780622e-01  6.1520664664982969e-03 -4.8777314142856