<?xml version="1.0"?>
<VTKFile type="UnstructuredGrid"  version="0.1"  >
<UnstructuredGrid>
<Piece  NumberOfPoints="3594" NumberOfCells="14547">
<Points>
<DataArray  type="Float64"  NumberOfComponents="3"  format="ascii">0 0 -4000  0 250000 -4000  250000 0 0  250000 250000 0  135000 0 -60000  135000 250000 -60000  250000 0 -60000  250000 250000 -60000  65308.5 173604.8 0  78441.2 185529.2 0  65707.89999999999 168017.6 0  73555.60000000001 174095.8 0  61257.8 157386.9 0  65291.6 154352.5 0  82112.3 172814.3 0  58804.1 138685.6 0  106822.8 190893.8 0  60152.4 136426.2 0  144960.9 230041.9 0  88660.10000000001 163931.9 0  134829.2 208246.3 0  82409 149993.8 0  65214.4 127836 0  67249.7 122418.9 0  91916.7 141284.3 0  125498.1 99698.5 0  111195.9 162013.4 0  92905.39999999999 131283.2 0  77176.5 109747.4 0  90809.3 124059.5 0  107806.1 141615.9 0  104439.5 126126.3 0  137051.8 160541 0  118095 132800.4 0  82238.39999999999 90851.5 0  84123.2 92291 0  98197.5 105309.4 0  105163 104713.8 0  154799.8 153672.9 0  133655.9 122823.1 0  111467 94557.3 0  106995.1 77971.8 0  149450.7 123239.8 0  192061 157764 0  133903.2 45232 0  140000 0 0  136000 250000 0  9714.285714284615 250000 -3714.285714285747  19428.57142857481 250000 -3428.571428571329  29142.85714285597 250000 -3142.857142857177  38857.14285713715 250000 -2857.142857143025  48571.42857141832 250000 -2571.428571428873  58285.71428569948 250000 -2285.714285714721  67999.99999998066 250000 -2000.000000000569  77714.28571426184 250000 -1714.285714286416  87428.571428543 250000 -1428.571428572265  97142.85714282417 250000 -1142.857142858113  106857.1428571053 250000 -857.1428571439606  116571.4285713865 250000 -571.4285714298085  126285.7142856677 250000 -285.7142857156564  250000 240000.0000000016 0  250000 230000.0000000032 0  250000 220000.0000000048 0  250000 210000.0000000064 0  250000 200000.0000000079 0  250000 190000.0000000095 0  250000 180000.0000000111 0  250000 170000.0000000127 0  250000 160000.0000000143 0  250000 150000.0000000159 0  250000 140000.0000000175 0  250000 130000.0000000191 0  250000 119999.9999999916 0  250000 109999.9999999825 0  250000 99999.99999998408 0  250000 89999.99999998568 0  250000 79999.99999998725 0  250000 69999.99999998885 0  250000 59999.99999999045 0  250000 49999.99999999205 0  250000 39999.99999999366 0  250000 29999.99999999526 0  250000 19999.9999999968 0  250000 9999.999999998399 0  130000 0 -285.714285714285  120000 0 -571.4285714285701  110000.0000000001 0 -857.1428571428546  100000.0000000001 0 -1142.857142857139  90000.00000000017 0 -1428.571428571424  80000.0000000002 0 -1714.285714285709  70000.00000000025 0 -1999.999999999993  60000.00000000026 0 -2285.714285714278  50000.00000000023 0 -2571.428571428565  40000.00000000019 0 -2857.142857142852  30000.00000000015 0 -3142.857142857139  20000.00000000009 0 -3428.571428571426  10000.00000000004 0 -3714.285714285713  0 9999.999999998096 -4000  0 19999.99999999726 -4000  0 29999.99999999545 -4000  0 39999.99999999275 -4000  0 49999.9999999912 -4000  0 59999.99999998965 -4000  0 69999.99999998808 -4000  0 79999.99999998655 -4000  0 89999.99999998501 -4000  0 99999.99999998347 -4000  0 109999.9999999819 -4000  0 119999.9999999804 -4000  0 130000.0000000079 -4000  0 140000.000000017 -4000  0 150000.0000000155 -4000  0 160000.000000014 -4000  0 170000.0000000124 -4000  0 180000.0000000109 -4000  0 190000.0000000093 -4000  0 200000.0000000078 -4000  0 210000.0000000062 -4000  0 220000.0000000047 -4000  0 230000.0000000031 -4000  0 240000.0000000016 -4000  134615.5786831678 8376.221222376078 0  129135.8381374389 16690.61556165003 0  123693.3119097638 25029.34528065769 0  118458.7304757098 33499.41630675747 0  114183.5561631282 42453.40693221996 0  117152.9012549134 51656.5775220433 0  109640.5189223821 56772.26946740811 0  99783.22349336625 58163.79074226946 0  89906.64048415456 59427.041153887 0  80231.83368741472 61714.93090982783 0  73457.07599492084 68333.04562829909 0  74666.1562536891 78126.62096439983 0  77477.57171300898 87678.05180735435 0  78461.83411646895 97534.63399308435 0  75049.04009726809 106816.2708870931 0  69538.50964765088 115103.6313494232 0  63598.75337311435 123095.8011052612 0  58118.08704720287 131402.6075281692 0  54672.56885839759 140685.5429709587 0  54507.01644649181 150612.6283068675 0  56360.01451579022 160386.8607035369 0  59277.85033353963 169905.2699317088 0  62638.60576621335 179274.2426304358 0  68212.99295126265 187459.3754999009 0  75814.40529046141 193858.3467082375 0  84761.00503602097 198204.6515231062 0  94061.92665129391 201734.182040823 0  103676.4565927747 204325.1412130333 0  112974.540309108 207830.3235759034 0  118972.4630267572 215380.3369922852 0  120264.8170507578 225241.997356352 0  123444.1757132735 234565.2722630062 0  129527.245366261 242435.1534677757 0  250000 250000 -9999.999999997535  250000 250000 -19999.99999997662  250000 250000 -29999.9999999377  250000 250000 -39999.99999995799  250000 250000 -49999.999999979  250000 240000.0000000016 -60000  250000 230000.0000000032 -60000  250000 220000.0000000048 -60000  250000 210000.0000000064 -60000  250000 200000.0000000079 -60000  250000 190000.0000000095 -60000  250000 180000.0000000111 -60000  250000 170000.0000000127 -60000  250000 160000.0000000143 -60000  250000 150000.0000000159 -60000  250000 140000.0000000175 -60000  250000 130000.0000000191 -60000  250000 119999.9999999916 -60000  250000 109999.9999999825 -60000  250000 99999.99999998408 -60000  250000 89999.99999998568 -60000  250000 79999.99999998725 -60000  250000 69999.99999998885 -60000  250000 59999.99999999045 -60000  250000 49999.99999999205 -60000  250000 39999.99999999366 -60000  250000 29999.99999999526 -60000  250000 19999.9999999968 -60000  250000 9999.999999998399 -60000  250000 0 -49999.99999997466  250000 0 -39999.99999999574  250000 0 -30000.00000007532  250000 0 -20000.00000005069  250000 0 -10000.00000002534  240416.6666666667 0 -60000  230833.3333333333 0 -60000  221250 0 -60000  211666.6666666667 0 -60000  202083.3333333333 0 -60000  192500 0 -60000  182916.6666666667 0 -60000  173333.3333333333 0 -60000  163750 0 -60000  154166.6666666667 0 -60000  144583.3333333333 0 -60000  240416.6666666667 250000 -60000  230833.3333333333 250000 -60000  221250 250000 -60000  211666.6666666667 250000 -60000  202083.3333333333 250000 -60000  192500 250000 -60000  182916.6666666667 250000 -60000  173333.3333333333 250000 -60000  163750 250000 -60000  154166.6666666667 250000 -60000  144583.3333333333 250000 -60000  135000 240000.0000000016 -60000  135000 230000.0000000032 -60000  135000 220000.0000000048 -60000  135000 210000.0000000064 -60000  135000 200000.0000000079 -60000  135000 190000.0000000095 -60000  135000 180000.0000000111 -60000  135000 170000.0000000127 -60000  135000 160000.0000000143 -60000  135000 150000.0000000159 -60000  135000 140000.0000000175 -60000  135000 130000.0000000191 -60000  135000 119999.9999999916 -60000  135000 109999.9999999825 -60000  135000 99999.99999998408 -60000  135000 89999.99999998568 -60000  135000 79999.99999998725 -60000  135000 69999.99999998885 -60000  135000 59999.99999999045 -60000  135000 49999.99999999205 -60000  135000 39999.99999999366 -60000  135000 29999.99999999526 -60000  135000 19999.9999999968 -60000  135000 9999.999999998399 -60000  9760.266420117418 0 -5952.053284023483  19520.53309387125 0 -7904.10661877425  29307.1102415074 0 -9718.421407375839  39104.7333719938 0 -11473.30036109216  48875.83924532436 0 -13369.19882213981  58571.87012930932 0 -15613.67939664691  68124.11986543986 0 -18408.53002372226  77527.76485865096 0 -21667.33907869995  86719.09466349281 0 -25482.98540480309  95631.92793098884 0 -29908.59492259344  104180.5528547143 0 -35003.66989024555  112449.6580983703 0 -40542.62450796275  120509.52686276 0 -46382.42388125008  127994.6878848568 0 -52930.54997290741  9760.266420117418 250000 -5952.053284023483  19520.53309387125 249999.9999999999 -7904.10661877425  29307.1102415074 250000 -9718.421407375839  39104.7333719938 250000 -11473.30036109216  48875.83924532436 250000 -13369.19882213981  58571.87012930932 250000 -15613.67939664691  68124.11986543986 250000 -18408.53002372226  77527.76485865096 250000 -21667.33907869995  86719.09466349281 250000 -25482.98540480309  95631.92793098884 250000 -29908.59492259344  104180.5528547143 250000 -35003.66989024555  112449.6580983703 250000 -40542.62450796275  120509.52686276 250000 -46382.42388125008  127994.6878848568 250000 -52930.54997290741  145499.999999982 250000 0  154999.999999964 250000 0  164499.999999946 250000 0  173999.999999928 250000 0  183499.99999991 250000 0  192999.9999998977 250000 0  202500.00000009 250000 0  212000.000000072 250000 0  221500.000000054 250000 0  231000.000000036 250000 0  240500.000000018 250000 0  240000.0000001065 0 0  230000.0000002129 0 0  220000.0000003194 0 0  210000.0000004258 0 0  200000.0000005323 0 0  190000.0000006387 0 0  180000.0000006325 0 0  170000.0000004744 0 0  160000.0000003162 0 0  150000.0000001582 0 0  81541.63335874674 35498.13281562441 -1158.202651726381  46004.68664141578 194254.3443995834 -2060.726341037222  32687.99629987251 175105.6839569158 -2219.415882311186  36663.59507600099 63079.34846719183 -2167.093431592842  52002.09530018299 134928.3526843132 -266.7613614382204  59599.13772899003 109177.3480854863 -691.4602217251189  13806.90843888927 84795.87142461444 -3288.608480833754  42042.1003123136 65482.76889364541 -1784.344992951069  85917.78356508871 211210.3489857896 -1084.187284676976  26344.15959288631 140617.4121347481 -2112.437398247788  49350.86723141051 36336.78604214006 -2272.704599832591  21702.40331646254 119880.0690882354 -2466.437976166102  57313.56589490068 220733.4025395545 -2090.49117424689  28866.73893404105 218351.493928639 -3037.311471166797  64300.33793173476 48969.94193502321 -1793.328299662734  52482.25996720623 28090.02703717845 -2196.191483315934  63095.9704402233 54899.2587271606 -1627.600015239288
[...]
<PointData  Vectors="sample_prior"> 
<DataArray  type="Float64"  Name="sample_prior"  NumberOfComponents="3" format="ascii">3.3929276110284479e-01 1.9075352691810563e+00 1.0027595136754808e+00  4.6974312036167859e-01 8.2791467614807690e-01 1.7374730818016815e-01  6.5979995865916363e-01 1.7774298690775911e-01 1.7621021625034347e-01  -8.1645764648939939e-02 3.6765407418830615e-01 1.0909559827285351e-01  -1.7392606162672436e-01 1.1296759295422655e-01 2.9356222136977275e-02  1.5778352721120636e-01 5.5739904780537608e-01 3.8329388549666110e-01  4.9105984207824255e-01 -8.6503097373575144e-02 -2.7899768808420844e-01  5.2535022873903803e-01 -4.1464896528805956e-01 3.8077438329259894e-01  2.3733858713801245e-01 -4.4041525082882677e-01 4.5154804217433418e-02  4.2378611210226874e-02 -5.0561302999691336e-03 4.7349600655617725e-02  2.8274587485356989e-01 -3.2977381883879275e-01 -1.0361808124293088e-01  1.8296622647746427e-01 -1.0481863161496080e-01 -4.8019026812240156e-02  -4.0254786063723567e-03 2.0544520028574410e-02 -2.0769269993066625e-01  1.1132462551442220e-01 -1.6321185655546999e-01 8.8224531105669440e-02  2.1421948101306768e-01 1.3821901613923940e-01 1.5950479360541006e-01  -2.5135410014080339e-01 1.5095449931326391e-01 -1.0691538439524427e-01  -5.0254553084177304e-03 2.0431187333262282e-02 2.7783551167265292e-02  -1.6444682245390319e-01 9.2458822712494310e-02 -1.2308983083864841e-01  4.0845319756820209e-02 -1.9414595402751328e-01 -1.5446565394077455e-01  4.4328666310606907e-01 -2.2696606008943646e-02 -7.9333291684810292e-02  -1.5998957073164705e-01 -6.0669262329814642e-04 9.4147355994568499e-02  6.0477296527435047e-02 -3.0473999826036696e-01 -7.6536213854834653e-02  -1.3040733449655267e-01 1.6624300183605875e-01 6.4387616896636204e-02  9.7470496409924598e-02 8.7899512159061333e-02 1.1724730961599768e-01  7.4925478022443356e-02 -8.8138099308653572e-02 -1.5366184452309548e-01  -4.5109842214442364e-02 -2.1426079576305108e-02 9.7815222917449651e-02  2.9136010037068510e-01 -5.6149667169878299e-02 -1.2866561979190716e-01  -8.8248241291502924e-02 -1.0531408570705618e-01 -2.8566961875963953e-02  1.4896543070763887e-01 2.7480055819985283e-01 1.6359597622778069e-01  1.1117932744042372e-01 -9.6827607199038337e-02 1.3770808016093697e-01  -2.6479245973000060e-01 6.1616264984013569e-02 6.9011323934176257e-04  4.6627033331755399e-02 -4.5472573611166398e-02 2.1474919286193386e-01  2.0387654747641096e-01 -2.1890346670179814e-01 1.9105786878058251e-02  -1.7631594810628737e-01 2.0656042806899416e-01 -2.4363786701314769e-02  -1.3915482183504058e-01 -1.0642340369928499e-01 2.4336603174563307e-01  -1.5682017312591270e-01 -1.4093902453940294e-01 2.1412890706272658e-01  2.3337675200040370e-01 -5.7179687701174868e-02 7.2171687809638192e-03  6.4800540013570523e-02 -2.6073356915791224e-01 1.9560416133136346e-01  2.0231622018211270e-01 3.2428268112573744e-01 4.3009917589798476e-02  -1.8428517089620264e-01 2.2514571548019610e-01 7.6991460873643072e-02  5.5564209839018122e-02 -7.7436333454027201e-02 -2.9135719103117932e-02  8.1511561457360326e-02 -8.2030849941620312e-02 1.6926994170814044e-02  -6.0651269911338401e-02 4.0741883969463599e-02 9.5409046219310540e-04  -2.1624339516282461e-02 8.6102149425154442e-02 -1.3115417767588619e-01  2.0984066497054579e-01 -8.6769700944098666e-02 -1.0635112129166191e-01  5.4320418130946446e-01 3.3011882130217984e-01 5.0947215268589086e-01  3.3791364957789610e-01 -3.8531319974882516e-01 -2.0180154043764437e-01  1.8731304462307327e-01 -1.8698136520774528e-01 3.9086579934214860e-01  1.6871757471918961e-01 -2.7907115301999003e-01 1.9652500867692835e-01  6.5557237379418529e-02 -3.7368186777551204e-01 -1.5884948218985920e-01  3.2541996868716033e-01 9.3544356802487363e-02 2.6886175441307447e-02  2.4047532200957097e-01 2.7408806926571688e-01 1.8314827285468219e-01  1.3839508347844931e-01 6.5913705397656078e-02 1.4139693775054210e-01  1.4208606618746389e-01 8.3865012903542382e-02 1.5859964355910863e-01  -7.0868922698308953e-02 -4.5134593949193602e-01 1.4664944613342679e-01  -1.4371515466931345e-01 -9.5623886861293875e-02 2.3861172941367972e-01  -3.6363353016411282e-01 2.7092368979827819e-01 -1.9475095897368394e-01  -4.4679828226278373e-01 6.2573694967274962e-01 6.4651207494513341e-01  2.2227914217061637e-02 4.9929870327080988e-02 2.8629906760782453e-01  1.4930621688341941e-01 -6.1415185856362386e-03 -7.0515217391051321e-02  2.2082458615950776e-01 3.0215190720223445e-01 1.0678519314016562e-01  1.0690907843091353e-01 2.2810080760321924e-03 3.5967423595410504e-02  1.1123332983391415e-01 -6.5206320198297031e-03 1.8480281190992764e-01  3.7616554766280386e-01 1.6173970601843660e-01 2.8550400827257827e-01  1.4234075291777587e-01 9.3172326975506647e-02 1.8654698393377717e-01  1.1836801126204222e-01 3.7355406565922934e-02 -1.5405586921839615e-01  -1.4248198482712079e-01 -2.7974283009483270e-01 -3.0687985769195142e-01  3.9245039271434140e-01 -1.1980983203351141e-01 -4.0555738345151965e-01  8.4507624793839609e-02 3.7410703988375857e-02 -2.8951836276555641e-02  7.8486045350290412e-02 -1.0540896728436865e-01 -5.8726132878359656e-02  2.6453133755244684e-01 1.9653812061934417e-01 -3.8934609368017820e-01  3.4465445340811508e-02 3.3420774296942163e-01 -3.6036143952474947e-01  -1.4110367206943686e-01 5.2810154912877438e-02 -6.9121074466026430e-02  2.0270156545355525e-01 -1.0313084634239628e-02 -3.3898234020975543e-01  1.3966292392000373e-01 -2.7261398412818678e-02 7.6154260724143802e-02  -5.3292315427626032e-02 -1.1349432813851455e-02 1.8232877056517424e-01  3.6898659484483946e-02 1.5269679316409790e-01 1.2802436542241977e-02  1.2366041394211434e-01 -2.4137682940883079e-01 2.8726968344153941e-01  1.7541455183805496e-01 8.4103810923167238e-02 6.3317464252389696e-02  1.6640078351253632e-01 2.1008946115709626e-01 7.2687153658774492e-03  1.4468389727865655e-01 1.6409363934111684e-01 -1.1347973563241272e-01  -2.2936614013358395e-01 9.4770409608468248e-02 7.5374871839646460e-02  -2.8257862606629147e-01 -2.0534842323955776e-01 4.7186119828633133e-02  4.5193794042639968e-01 -1.9351756475533843e-02 -1.0090730548508907e-01  3.7419212700308624e-01 7.6726737088983019e-02 -1.5095891416107323e-04  1.0394130350071173e-01 2.3242084667977600e-01 -2.6564802431864737e-01  1.7019941532805724e-01 -1.5519520415971480e-01 -4.6072841217265736e-01  3.7651896878604996e-01 5.1492204893621829e-02 -2.5371474259220994e-01  2.8130258557708465e-01 1.1711442126130485e-01 -3.5052480326258662e-01  5.5019795329795962e-01 -2.9837933999543587e-02 -1.5045214419943190e-01  -1.6284963980199132e-01 2.5254514281931484e-01 -3.9511442896439702e-01  -2.5204763727369367e-01 -1.6425509734272786e-01 1.2740917747582739e-01  -6.0504006164107914e-02 -6.6562820333069357e-03 1.1634519397131992e-03  -1.5207376120313953e-01 -2.5645710118111381e-01 -1.1286671369218834e-01  4.8292679387281590e-01 -3.4678498369840688e-01 -4.1002035070067261e-01  5.2814475240296543e-01 -4.6648197723863485e-02 -1.7388372600726273e-01  4.3681244092556226e-01 6.2071325604414829e-01 6.4987595222568872e-01  3.3186296890780745e-02 5.1294586015619548e-01 3.9007365887478052e-01  -1.3124956899948188e+00 2.7334678646783855e-01 2.7747223343232591e-01  -5.8628429970898077e-01 1.5914187620418757e-01 -6.4804470007419301e-01  3.5129535914702803e-01 -4.7875459003363774e-01 -6.6715228257493908e-01  6.8542274490583222e-01 -6.5107134346186502e-01 -5.6360965209281522e-01  1.2485942154797987e+00 -1.8186262699461220e-01 -2.5567258151542283e-01  4.1565206426472562e-01 -7.2302799452068556e-01 -4.1647297757604140e-01  -1.0398458064318577e-03 -1.7981373585694158e-01 -5.2118767139503190e-02  -3.1940267678908202e-01 -1.1788727194922706e+00 -7.8295132089914982e-02  9.9613783381339638e-02 -2.6068681318824449e-01 -1.4396322172307335e-01  -9.3717304615176886e-03 5.6269430695994460e-01 -2.6935728495389721e-01  -5.0005400083981988e-01 3.6725184870971476e-02 -4.0155877263416112e-01  -4.2547114297341992e-01 6.1304553780393067e-01 2.8779392755514891e-02  -2.2938306550552703e-01 2.2852568031746226e-01 -3.9993880981773106e-01  -1.5446572400104872e-01 -3.5061393202871122e-01 5.1118439657584380e-01  -5.1808349539194376e-01 1.4439862340879955e-01 1.4580028743118770e-01  -5.5500317481449035e-01 3.4025042056333271e-01 1.0317448055223831e-02  -5.1425050968661323e-01 -6.0845349629878731e-01 -6.1335703091999549e-01  -5.6518100380410619e-01 2.5638149372897967e-01 -4.1699134001173893e-01  -7.3932937178934788e-01 -1.1647972047570956e+00 -6.7039760665507853e-01  -9.0444471618631550e-01 -1.2019068881505928e+00 -9.6516807982765163e-01  2.5505273987406207e-01 -9.8349718351202278e-02 -2.2176130497489360e-01  3.1618059486706013e-01 4.7326952327457728e-01 -2.9372673410431827e-01  2.5872691805474551e-01 3.5379901678851206e-01 -4.0246564970461896e-01  3.1523884908187888e-01 1.9966719902090366e-01 2.4413324260219207e-01  3.4849937690275457e-01 -1.6717671812203688e-01 8.5786010515842129e-02  1.6625810845263253e-01 -8.4342973532560442e-02 8.1006468938488924e-02  -2.4012438429024197e-01 -4.9694817506928481e-02 -1.3871401339474995e-01  8.6413426827586778e-02 1.3112243458252909e-02 -1.5887059662763131e-01  4.9171648696482134e-02 9.0174455715145874e-02 -1.8749730158774841e-01  -1.1009730272063505e-01 1.8264685734567088e-01 -7.9378585130833693e-02  1.1531369850901266e-01 -8.4046483885185722e-02 2.2496469699420391e-01  -5.9918032436122703e-02 -7.8073721023025316e-02 1.1245628139447100e-01  2.0349218217407916e-01 -1.3972465753173446e-01 -1.8636504428509654e-01  1.3211461369704333e-01 -2.1067414396727470e-02 -2.8910453348498871e-01  -1.0189692659822945e-01 1.0434186146943362e-01 -1.8145892834182629e-02  -8.9632562114154324e-02 1.9157682364468107e-02 1.2790818317852332e-01  -1.1620951860481606e-01 -3.2185985960607608e-02 8.0104010259316516e-02  1.5014279162146785e-01 1.4210448242125753e-01 6.5235936537215433e-02  -1.6169686298867142e-01 -6.6370998840995732e-02 2.5518766110569541e-01  1.8621138160097861e-01 4.7488030099453446e-02 1.5632066420084564e-01  -1.1158224435108249e-02 1.7762994865741150e-01 -5.8615019731268508e-02  -1.6156086565362981e-01 -4.5261384354578302e-03 -5.8546949641464043e-02  -3.2817454634675308e-01 -1.7233015555250622e-01 4.3759979526940697e-02  -2.5313230577969012e-03 -5.0320875558260592e-02 -1.4453627889420584e-01  1.4990680458004793e-01 -2.7460048625828337e-01 -2.7952320599167170e-02  2.5988986181597223e-03 -2.4527333733567894e-01 1.2290831053842829e-01  -2.2057595438067373e-01 -3.6308352839396285e-01 -4.5364409702600555e-02  -3.7686525090288026e-02 -1.4997812289381013e-01 -1.1438147573082463e-01  -9.0822659850096660e-02 3.7864319342598443e-02 2.3708489674237027e-02  -5.1166425209813904e-02 -4.4287719039598529e-02 -7.0738168245771130e-02  1.0907821068322854e-01 -1.2265982984630303e-01 -4.7272955247921029e-02  1.3077898029835133e-01 -2.5617293853729922e-01 3.0373659654810690e-03  1.9834938661589613e-02 1.9973072459341687e-01 2.8075015395467320e-02  -1.9458166818422037e-02 1.7354337529616773e-01 1.1212781275736904e-01  -1.6047358389535929e-01 -1.7557759312785363e-02 4.6372115445378559e-02  1.5888177362765696e-02 -4.3672804164460968e-02 -4.2683328144828898e-02  1.1026879032062190e-01 1.5119024993653222e-02 -2.2822989985466227e-01  -3.8896146415049948e-01 -1.9705969443672020e-01 -1.8933618621213080e-01  -1.0430292610036533e-01 -2.5630052606798827e-02 -4.0349858413280648e-02  2.0964578713771080e-03 -1.0048958842394474e-02 8.7845662090555138e-02  2.0938087529890198e-01 1.6853446658441459e-02 4.5413427427443039e-02  2.7052902851778354e-01 -1.9875523439332976e-01 9.7013316718310386e-02  5.6418201526749465e-02 2.1022308682384716e-01 1.3422319337904831e-01  -3.3051097530663792e-01 4.8410395653866865e-02 1.6730048707912296e-02  -2.6515022501304591e-01 -1.3213070500393148e-01 6.3277211542311751e-02  4.5118206389016219e-01 7.4037316257533847e-02 -3.3339924951376408e-02  2.8188312816768528e-02 -6.2169236588023404e-02 2.4198388402001061e-01  -3.7801917968383995e-02 -1.3920883329392850e-01 3.5845028102477400e-01  -2.9154200032149657e-01 2.0645968979379975e-01 1.7345113176878904e-01  -3.8449332581498391e-01 2.5880192341214747e-01 -2.1526232739260470e-01  -5.6494382335067261e-02 3.3237566280646269e-01 3.9095273011302098e-02  -4.1052089341140996e-01 3.2590485757522070e-01 -2.3381892648137981e-01  -1.0145429773652906e-01 9.7969913565942604e-02 9.6822857931430181e-02  2.2673730868673378e-01 -7.5358138509358422e-02 1.2978210609617055e-01  4.6436019383376287e-01 3.7685678799851968e-01 -2.4300415623630436e-01  -8.9803302167824829e-04 1.8370581648006327e-03 3.8921693490272226e-02  2.0431413067473353e-01 3.1624683985502089e-01 2.0229964715653970e-02  -1.2415605100438476e-01 4.2555054800870407e-01 -1.8355928981896514e-03  -5.8076891571793549e-02 3.9739849117327281e-01 1.2320612751459381e-02  -3.5665660240004965e-01 2.3972501586503014e-01 1.0954872366930764e-02  -7.8533884210897936e-02 -2.0431897507727775e-01 2.0010945684917087e-02  -2.2052391875222119e-01 -4.5255475780023624e-01 1.9720977494880440e-01  1.2681199395531906e-01 -4.2751429709601985e-01 -2.2410487416295963e-01  4.1235629676620189e-01 -1.4159135551336790e-02 -5.4133318072080112e-02  1.3909079966850363e-01 -3.7620259664195639e-02 7.1032034833956995e-02  3.3859483645255617e-01 -1.2385290976031660e-01 3.2149852110826327e-01  1.9879115837746850e-01 -5.4717112873566107e-02 -2.8246681485710451e-01  -8.6793543448867652e-02 -3.0628604610168769e-01 -3.1271619144279483e-01  -4.0396768556188062e-01 1.0333061587430663e-01 -1.4342692494652798e-01  4.3452904322215480e-01 4.3368477239798942e-01 2.5767411026520365e-01  -3.4530190595021527e-02 -2.0053848606826200e-01 -2.9702782547972334e-01  8.1350458082546623e-02 8.7094361557513850e-02 -3.1543683602416904e-02  4.2822532385754453e-02 3.0712387342738345e-01 -1.2482268052209652e-01  3.1468341131715355e-01 3.4444527116534501e-01 -2.4228795864879582e-01  -1.6462923890682959e-01 1.3146840898504972e-01 -1.1745799347448366e-02  8.8702506543582665e-02 3.9023897776460870e-01 1.0231734145689123e-01  -1.7758566471722251e-01 -8.6321792309338757e-02 -1.0719086522651167e-01  -1.9713564538415546e-01 -1.7055068386795952e-01 -5.7416008569529609e-02  -3.9036912264481982e-01 2.0423870962032570e-01 -9.3012306255621721e-02  -2.9155153132659589e-01 -1.7389567664898556e-01 -1.9022893212102857e-01  -3.5554026093087038e-01 1.2724923608784405e-01 1.2865452319778817e-01  3.0821456740750952e-01 -3.3373454717014289e-01 -4.7885358061264940e-02  2.8243909792019856e-01 -1.7071995857379653e-02 3.9568415645142463e-01  -7.5430833605318687e-02 -1.0575253363329819e-01 1.7676163881530391e-01  -1.4088392849014184e-01 -2.8997497341361500e-01 1.4090506379215106e-01  8.7399042896652169e-03 -1.0120938062892620e-01 -9.3882357660937693e-02  3.4837395689302310e-02 -1.8013468402384619e-01 -4.0980972108610618e-02  -1.4416346172308878e-01 -2.1922166119853139e-03 -2.5301141615059825e-01  1.6810974833891265e-01 1.0823348985355229e-01 -1.3595974161077790e-01  4.7992110453432962e-02 6.6117599343807662e-02 -8.2692329535614548e-02  -6.5944747888090460e-02 -6.8756893587459650e-02 2.1104510747447083e-01  -5.1891823143555567e-02 1.0917578749421321e-02 -7.7422109709993886e-02  1.9596927263797576e-01 3.3810332639831531e-01 1.5805154708971558e-01  -1.6803024618922496e-01 1.5302225291902397e-01 7.3785923568525744e-02  1.1075220372398510e-01 -3.2730416686381092e-01 -1.5390958344110484e-01  8.8067700557287174e-02 -3.0210962443460482e-01 -1.8820548356080644e-01  -4.1406682014728247e-03 -1.3585272526926728e-01 4.0450640934494748e-03  1.6786961650230692e-01 -8.1910812264939764e-02 3.8309516423650297e-01  1.7879345365629715e-01 1.6614251166504881e-01 -1.1276451945770063e-01  1.8110406372953297e-01 1.4438516907130866e-01 2.4024116119327668e-01  8.3539901076424075e-02 3.7914466308848094e-01 -1.1507526859397318e-02  -2.2068301989477584e-01 3.7429573857750031e-02 -6.0877103928421931e-02  5.9308452858317290e-02 5.3087237888994020e-02 1.1793728036403300e-01  2.3456268313340672e-01 -3.1234141555355438e-03 -9.4606255189890909e-02  2.2868219919200991e-01 -1.3876409213296242e-01 -1.5309222703711231e-01  -8.3874076377772874e-02 1.6170194880252536e-01 -1.3192223653980467e-01  -6.9226267824388189e-03 -1.3103702186856028e-01 -6.6391012704790184e-02  7.7346183509037908e-02 1.3162355146001999e-02 8.8068297952542937e-02  -8.0775519107568368e-03 8.4548201066437234e-02 2.4980447543988818e-01  5.3390436674501968e-02 -8.3469788795258862e-02 1.1997899795958990e-01  -2.9684475540315995e-02 8.0834032040188381e-02 1.5001223110009307e-01  4.1270226609979158e-02 2.2693511179062104e-01 -1.7292588557806875e-02  -3.4531765643609152e-01 1.6547316995494968e-01 8.4303599866495799e-02  -9.1562956061565587e-02 2.4225475000654820e-01 9.7067817239589640e-02  -4.3557477539345774e-02 1.2152125419039712e-01 -7.3582788039239136e-02  -3.0267807054458018e-01 2.7666812950891273e-01 -1.8873696191920961e-01  4.5572267152429302e-01 6.0612630046722782e-01 6.2450755788260848e-01  5.2062747093825701e-01 2.3059876668512633e-01 -1.7903551339382329e-01  1.1950867004211296e-01 -5.1546180960809207e-01 -2.0580884944824188e-01  -5.5193155704099739e-01 -3.1065941552145399e-01 -2.1217528108939607e-01  -1.7593282674115160e-01 -8.8288071670405449e-02 -3.3796016611750933e-02  -2.0391632402502183e-01 1.0649292140504478e-01 2.2254204981931716e-02  3.2365919449400864e-02 1.9632823744866107e-01 -2.4970434667591110e-01  4.1837171884978092e-01 4.0365735413658704e-01 1.1862203180689433e-01  4.4214969965937534e-01 1.1991695528474718e-01 6.8143528066692619e-02  2.9470815319189207e-02 -1.0122072445828757e-01 -4.0729202956512339e-01  2.3777841747449899e-01 -2.5226103753230733e-01 -1.8625316625114738e-01  5.6123489387412497e-02 -4.4107904837057614e-02 -3.7518079790886283e-01  1.2914455009361753e-01 -9.9377271759610881e-03 3.1397952759622184e-02  3.7050470245948652e-02 -1.9765254820755757e-01 3.0293001380532103e-01  1.3875068082893333e-01 -2.8196421132347255e-01 4.0022263699079491e-01  2.2561996101909720e-01 -2.4589489150829921e-01 3.6894137326352988e-01  1.4174673167397064e-01 -4.8677316205431925e-01 -3.0426287727405903e-02  1.8610160555247262e-02 3.0940955127807024e-01 7.3110721364635797e-02  2.4792590135921028e-01 -2.9481645008848305e-02 2.9532992661109247e-01  9.3252895700600857e-02 2.6462783349604319e-01 4.1065324985462198e-01  5.8729181511735874e-02 -3.2758185823850865e-02 1.3145989382769635e-01  -4.8471160265122624e-02 1.5214063737352515e-01 3.9298570128987138e-02  -1.6405624470464891e-01 1.9598226445100911e-01 1.7177425355576034e-01  2.9319725747113945e-01 -3.6351661155796168e-02 1.0571629711282422e-01  2.2460910383652510e-01 -1.7920601362219607e-01 1.5633117898709126e-01  2.3424399258703474e-01 1.7863986437838511e-01 -1.5267179418612614e-01  3.3955338177250105e-02 2.9790733670038655e-01 -4.7036151344330299e-02  3.4471164109499508e-01 3.7374195235326269e-01 1.3170482825664390e-01  2.7213126885286348e-01 -4.1505225477879693e-01 -1.6159235245558196e-01  7.4954793230684186e-02 -4.2602789712206081e-02 -1.7204279121872623e-02  2.4237109616305474e-01 1.2674051482203165e-02 3.0359259375228631e-01  -2.6861774456447679e-01 7.7205586378912505e-02 -1.6502601727452763e-02  -4.9999318270173632e-01 3.4240376276647344e-01 2.9028024791406976e-01  2.0299546407877242e-01 3.6948524331908594e-01 -3.1390832823657427e-03  6.7781695613311904e-02 -4.5425059779976192e-02 1.5976585427254211e-01  6.4315766668217991e-02 -6.7718816273815402e-02 -5.5155661791127027e-02  8.4680901892622756e-02 -5.9231151668633089e-02 -6.2585330584844348e-02  1.8093626074525035e-01 -1.1427693033046274e-01 1.9664907703992271e-01  4.5306549238165725e-02 -4.5045943937784085e-02 -7.1515220833876056e-02  2.0772436664486205e-01 -6.2124622788718102e-02 2.2812657330003591e-01  1.1134772601669826e-01 3.0914720892210118e-01 1.3433729322369922e-01  3.1215471370252573e-01 -1.8432310885743028e-01 1.1324587281981013e-01  -9.0934175703998102e-02 -2.4765152917561351e-01 -2.0422309016495391e-01  2.2674662281061238e-02 -5.7081791705274809e-01 -6.1304587620898209e-02  3.2414789263705683e-03 -7