<?xml version="1.0"?>
<VTKFile type="UnstructuredGrid"  version="0.1"  >
<UnstructuredGrid>
<Piece  NumberOfPoints="8385" NumberOfCells="35823">
<Points>
<DataArray  type="Float64"  NumberOfComponents="3"  format="ascii">0 0 -4000  0 250000 -4000  250000 0 0  250000 250000 0  130000 0 -60000  130000 250000 -60000  250000 0 -60000  250000 250000 -60000  72147.7 166878.6 0  86225.3 177671.7 0  72082.2 161278 0  80407.60000000001 166683.7 0  66765.10000000001 151053.8 0  70533.5 147695.4 0  88829.10000000001 164696.8 0  62768.1 132621.8 0  114956.1 180662.6 0  63924.4 130258.4 0  156213.5 216508.7 0  94617.8 155302.3 0  144307.5 195630.5 0  87231.39999999999 141931.8 0  68256.5 121278.3 0  69835.5 115711.4 0  95984.2 132464.1 0  116918.1 151520.9 0  96139.8 122416.1 0  78677.39999999999 102260.8 0  93451.5 115391.6 0  111847.4 131476.2 0  107207 116320.3 0  142564.4 147908.4 0  121370.1 121838.1 0  82154.39999999999 83011.2 0  84152.3 84289.39999999999 0  99259 96094.39999999999 0  106151.5 94923 0  159682.5 139591.9 0  136050.5 110604.8 0  111591.5 84279.10000000001 0  126001.6 88238.2 0  105758.7 68122.8 0  151826.4 109709.5 0  197157.2 140577 0  129859.4 33265.4 0  140000 0 0  136000 250000 0  4857.142857142332 250000 -3857.142857142872  9714.285714284615 250000 -3714.285714285747  14571.42857143168 250000 -3571.42857142848  19428.57142857481 250000 -3428.571428571329  24285.71428571539 250000 -3285.714285714253  29142.85714285597 250000 -3142.857142857177  33999.99999999657 250000 -3000.000000000101  38857.14285713715 250000 -2857.142857143025  43714.28571427773 250000 -2714.285714285949  48571.42857141832 250000 -2571.428571428873  53428.57142855891 250000 -2428.571428571797  58285.71428569948 250000 -2285.714285714721  63142.85714284007 250000 -2142.857142857645  67999.99999998066 250000 -2000.000000000569  72857.14285712125 250000 -1857.142857143493  77714.28571426184 250000 -1714.285714286416  82571.42857140242 250000 -1571.428571429341  87428.571428543 250000 -1428.571428572265  92285.71428568359 250000 -1285.714285715189  97142.85714282417 250000 -1142.857142858113  101999.9999999648 250000 -1000.000000001036  106857.1428571053 250000 -857.1428571439606  111714.2857142459 250000 -714.2857142868847  116571.4285713865 250000 -571.4285714298085  121428.5714285271 250000 -428.5714285727327  126285.7142856677 250000 -285.7142857156564  131142.8571428107 250000 -142.8571428585083  250000 240000.0000000016 0  250000 230000.0000000032 0  250000 220000.0000000048 0  250000 210000.0000000064 0  250000 200000.0000000079 0  250000 190000.0000000095 0  250000 180000.0000000111 0  250000 170000.0000000127 0  250000 160000.0000000143 0  250000 150000.0000000159 0  250000 140000.0000000175 0  250000 130000.0000000191 0  250000 119999.9999999916 0  250000 109999.9999999825 0  250000 99999.99999998408 0  250000 89999.99999998568 0  250000 79999.99999998725 0  250000 69999.99999998885 0  250000 59999.99999999045 0  250000 49999.99999999205 0  250000 39999.99999999366 0  250000 29999.99999999526 0  250000 19999.9999999968 0  250000 9999.999999998399 0  135172.4137931034 0 -137.9310344827583  130344.8275862069 0 -275.8620689655166  125517.2413793104 0 -413.7931034482749  120689.6551724138 0 -551.7241379310333  115862.0689655173 0 -689.6551724137912  111034.4827586208 0 -827.5862068965494  106206.8965517242 0 -965.5172413793075  101379.3103448277 0 -1103.448275862066  96551.72413793117 0 -1241.379310344824  91724.13793103464 0 -1379.310344827582  86896.5517241381 0 -1517.24137931034  82068.96551724157 0 -1655.172413793098  77241.37931034504 0 -1793.103448275856  72413.79310344851 0 -1931.034482758614  67586.20689655196 0 -2068.965517241373  62758.62068965542 0 -2206.896551724131  57931.03448275886 0 -2344.827586206889  53103.44827586231 0 -2482.758620689649  48275.86206896573 0 -2620.689655172408  43448.27586206916 0 -2758.620689655167  38620.68965517257 0 -2896.551724137927  33793.103448276 0 -3034.482758620686  28965.51724137944 0 -3172.413793103445  24137.93103448287 0 -3310.344827586204  19310.34482758629 0 -3448.275862068963  14482.7586206897 0 -3586.206896551723  9655.172413793145 0 -3724.137931034482  4827.586206896551 0 -3862.068965517241  0 4999.999999999225 -4000  0 9999.999999998096 -4000  0 14999.99999999756 -4000  0 19999.99999999726 -4000  0 24999.99999999649 -4000  0 29999.99999999545 -4000  0 34999.99999999351 -4000  0 39999.99999999275 -4000  0 44999.99999999197 -4000  0 49999.9999999912 -4000  0 54999.99999999042 -4000  0 59999.99999998965 -4000  0 64999.99999998888 -4000  0 69999.99999998808 -4000  0 74999.99999998731 -4000  0 79999.99999998655 -4000  0 84999.99999998577 -4000  0 89999.99999998501 -4000  0 94999.99999998423 -4000  0 99999.99999998347 -4000  0 104999.9999999827 -4000  0 109999.9999999819 -4000  0 114999.9999999811 -4000  0 119999.9999999804 -4000  0 124999.9999999824 -4000  0 130000.0000000079 -4000  0 135000.0000000178 -4000  0 140000.000000017 -4000  0 145000.0000000163 -4000  0 150000.0000000155 -4000  0 155000.0000000147 -4000  0 160000.000000014 -4000  0 165000.0000000132 -4000  0 170000.0000000124 -4000  0 175000.0000000116 -4000  0 180000.0000000109 -4000  0 185000.0000000101 -4000  0 190000.0000000093 -4000  0 195000.0000000085 -4000  0 200000.0000000078 -4000  0 205000.000000007 -4000  0 210000.0000000062 -4000  0 215000.0000000054 -4000  0 220000.0000000047 -4000  0 225000.0000000039 -4000  0 230000.0000000031 -4000  0 235000.0000000024 -4000  0 240000.0000000016 -4000  0 245000.0000000008 -4000  138499.992698711 4754.026372277331 0  137093.2670052012 9536.639699345635 0  135699.8836753657 14323.17697982435 0  134242.0997113028 19090.39455387465 0  132631.3534429766 23807.82160930602 0  130751.3712685147 28423.75111080412 0  128562.4170940472 32902.44582968431 0  126285.2564027428 37336.77035579942 0  123661.3951409534 41572.18842203188 0  120466.1639654971 45392.17900234455 0  116742.7600150611 48701.57094013265 0  112599.2779558244 51459.89351581372 0  108052.7620132346 53498.30186482816 0  103362.6013075687 55186.61489180412 0  98626.9445524631 56744.1075396087 0  93895.10465571457 58313.07723732995 0  89213.61083253716 60025.29196098565 0  84659.98679375931 62049.90630856762 0  80423.72342827682 64664.16689082998 0  77079.46520597988 68320.91799726382 0  75401.03926413733 72984.18687963787 0  75132.31546441223 77953.39118957664 0  75517.79269400188 82922.72841733029 0  75994.12798690467 87884.97931497527 0  76141.03644053877 92865.72190814259 0  75577.6917399208 97812.27627089612 0  74056.71099135675 102551.9930892217 0  71898.80264107142 107043.8044784894 0  69421.09707510214 111369.0872951042 0  66791.23439747586 115604.1050970619 0  64120.91357323291 119813.8417572768 0  61505.46198361652 124057.7414488965 0  59050.55973913459 128395.9995763311 0  56903.24970482702 132893.1998504455 0  55303.81367464051 137609.8368688517 0  54543.69409163466 142530.9149478115 0  54488.96440186739 147512.6695308264 0  54974.77359561732 152472.3067464133 0  55867.62888085351 157375.8602543657 0  57059.2217642535 162216.0105874235 0  58457.1304431001 167000.9860755429 0  59967.68958253603 171751.8163324134 0  61481.85702780542 176501.4740946017 0  63249.74457712872 181161.0445509208 0  65477.30866714627 185617.8308927955 0  68245.7959420751 189759.2433519008 0  71520.4315061924 193514.3385976385 0  75350.61144867241 196685.7937683813 0  79773.17101542671 198974.8606729538 0  84378.90699153654 200882.4207250944 0  88911.60265377768 202954.8336515224 0  93435.45084417483 205047.09581866 0  98032.2666486997 206976.2210864664 0  102616.0836544937 208935.8107130805 0  107113.0495121478 211085.573258506 0  111372.3937621359 213667.5068784722 0  114843.2448044628 217203.7046179156 0  116698.1230832934 221806.0799432901 0  117775.060870244 226673.1998860401 0  119571.7838315423 231305.7208116875 0  122475.2761019627 235353.0279900247 0  125742.3595464658 239117.4724032586 0  129161.5121633181 242745.2442007751 0  132614.792595325 246340.7012191151 0  250000 250000 -8921.902778285936  250000 250000 -19170.47581238532  250000 250000 -30942.99472097832  250000 250000 -44466.06850109496  250000 230769.2307692338 -60000  250000 211538.4615384677 -60000  250000 192307.6923077015 -60000  250000 173076.9230769353 -60000  250000 153846.1538461692 -60000  250000 134615.384615403 -60000  250000 115384.615384597 -60000  250000 96153.84615383085 -60000  250000 76923.07692306468 -60000  250000 57692.30769229849 -60000  250000 38461.53846153233 -60000  250000 19230.76923076616 -60000  250000 0 -44466.06850109696  250000 0 -30942.99472111472  250000 0 -19170.47581244904  250000 0 -8921.90277830635  232227.1661023966 0 -60000  216296.9260375522 0 -60000  202018.2515568125 0 -60000  189219.9167941597 0 -60000  177748.4479527209 0 -60000  167466.2824799582 0 -60000  158250.1197834204 0 -60000  149989.4414908582 0 -60000  142585.1882295191 0 -60000  135948.5681760333 0 -60000  232227.1661023966 250000 -60000  216296.9260375522 250000 -60000  202018.2515568125 250000 -60000  189219.9167941597 250000 -60000  177748.4479527209 250000 -60000  167466.2824799582 250000 -60000  158250.1197834204 250000 -60000  149989.4414908582 250000 -60000  142585.1882295191 250000 -60000  135948.5681760333 250000 -60000  130000 244047.61904762 -60000  130000 238095.23809524 -60000  130000 232142.85714286 -60000  130000 226190.47619048 -60000  130000 220238.0952381 -60000  130000 214285.7142857199 -60000  130000 208333.3333333399 -60000  130000 202380.9523809599 -60000  130000 196428.5714285799 -60000  130000 190476.1904761999 -60000  130000 184523.8095238199 -60000  130000 178571.4285714399 -60000  130000 172619.0476190599 -60000  130000 166666.6666666799 -60000  130000 160714.2857142999 -60000  130000 154761.9047619199 -60000  130000 148809.5238095399 -60000  130000 142857.1428571599 -60000  130000 136904.7619047798 -60000  130000 130952.3809523998 -60000  130000 125000.0000000169 -60000  130000 119047.6190476054 -60000  130000 113095.2380
[...]
<PointData  Vectors="sample_post"> 
<DataArray  type="Float64"  Name="sample_post"  NumberOfComponents="3" format="ascii">3.9383907266138385e-01 1.3296534532231430e-01 -3.2195997541265786e-02  -7.1200753439743225e-01 -5.0066215683819937e-01 3.1153975467585948e-01  -4.0906629285093948e-02 1.9214858589309006e-02 -4.9179607792726635e-02  2.5075006079929903e-03 6.2485127967268433e-02 -1.1053480622533049e-01  -1.0211428794256863e-01 -1.7193957910111859e-01 3.4583362871256438e-03  -7.5941983112173816e-03 -1.0291202873294225e-01 -1.5969434421186662e-01  -4.0592621299586969e-02 1.5541603654481095e-02 -4.8825742320731197e-02  1.6492616605626766e-03 6.2792383801197060e-02 -1.0722956611715354e-01  -3.5053529262596012e-01 -2.3072732660217116e-01 6.0819898055679167e-01  -2.3475000121976158e-01 -1.4450690897440965e-01 1.7898168441642862e-01  -6.2983236198019643e-01 -2.7468996999665196e-01 7.8873475657018988e-01  -5.8871873982049816e-01 -2.6741201571688727e-01 5.3296096851248820e-01  -1.0193371822441901e+00 -3.5649027763565333e-01 1.1526860180094545e+00  -1.4830794978064921e+00 -5.0587535412831697e-01 1.2661074573691897e+00  -7.8193471826549332e-01 -2.9036306640258303e-01 4.6714057024833250e-01  -1.3735421549433791e+00 -6.6627538920888052e-01 1.4401196236846736e+00  -1.7655461047665075e-01 -7.5071535437299206e-02 -9.6379978082370699e-02  -1.5073803724466914e+00 -7.3847338310662702e-01 1.4570880617362210e+00  -2.3784049724131996e-02 -1.1429424263456925e-02 -1.4658948612059136e-01  -1.2834074057456251e+00 -4.1900579576998792e-01 6.3227833932501654e-01  -6.3303067404413257e-02 3.2787714124619463e-03 -1.5189325496490702e-01  -2.1493032187102474e+00 -6.5809369524314143e-01 1.1743523147646584e+00  -1.7850943396693277e+00 -8.0809119171847821e-01 1.4201044487460588e+00  -1.7287974370624724e+00 -6.6470365298789358e-01 1.3200024596762385e+00  -2.0938964705439824e+00 -6.2303899346587510e-01 9.9724682476944093e-01  -8.4442016903330874e-01 -2.8335313470500134e-01 2.0455664432579407e-01  -2.0089269072667961e+00 -5.7779216856580928e-01 9.3693919102256151e-01  -1.4060168896210001e+00 -2.5497334311072684e-01 8.7164525865660558e-01  -1.9038496936004832e+00 -5.3261849540354700e-01 9.0939743303732101e-01  -1.3629298679937771e+00 -4.1463271631915610e-01 4.7424729912126412e-01  -1.3957849411611456e+00 -3.9955274955351427e-01 5.1157861873683186e-01  -3.6687539008750764e-01 -5.3477473859326774e-02 -7.5201636332977093e-02  -9.3961805587717728e-01 -2.6563037963613800e-01 2.1182058499923126e-01  -4.0796450289101693e-01 -7.8198076654948337e-02 2.3262193121540897e-01  -4.5953905153904873e-01 -9.6733351932033071e-02 2.3783933230130869e-01  -8.9108522614202568e-01 -2.3913737141483812e-01 3.1029337425051878e-01  -7.1875115940181866e-01 -1.9548116783399058e-01 1.7504869801385090e-01  -2.0742184847442474e-01 3.6377560353592374e-02 -1.3999398417963205e-01  -4.5215848637063072e-01 -7.8635834867359353e-02 -4.7306397712507040e-02  -3.4136638332834901e-01 -8.3643472789952267e-02 -2.0998591896881216e-02  -3.0433917043315273e-01 -4.0360088981252186e-02 -7.7733631954578830e-02  -3.3165621855934538e-02 -3.0201826965592597e-02 -1.1806815899676701e-01  -2.4230500488462620e-01 1.7122905167454631e-02 -1.3292294343368508e-01  -4.9297317024883658e-02 9.5783175515023397e-02 -1.4790830789684009e-01  -2.6467149116168816e-02 -2.7048532240340015e-02 -6.5572919162533813e-02  -5.7014419025873724e-02 -7.7563455003176615e-02 -2.7721690638009191e-02  -2.6878896067016961e-02 -1.2404123554092032e-01 -1.4376108851230698e-01  -7.1178357106707579e-01 -4.9775957628200307e-01 3.0918474536000018e-01  -7.0942032822085355e-01 -4.9091539077538837e-01 3.0453925289060496e-01  -7.0613074696838640e-01 -4.7755775769312564e-01 2.9665695584241564e-01  -6.9855810347921665e-01 -4.5717725619341226e-01 2.8572773917364486e-01  -6.8899708981326824e-01 -4.3110442387777703e-01 2.7310005297164214e-01  -6.7731689338294876e-01 -4.0009912514085755e-01 2.5860365595585100e-01  -6.6197026933459047e-01 -3.6286133753112060e-01 2.4168739042296400e-01  -6.4477633966375547e-01 -3.2096008209805654e-01 2.2270445473322456e-01  -6.2213458819970624e-01 -2.7533193077663248e-01 1.9957653143438905e-01  -5.9433464307312378e-01 -2.2994805949532313e-01 1.7458158735175702e-01  -5.6154289438305904e-01 -1.8507373799634394e-01 1.4712195999304484e-01  -5.2399085194035144e-01 -1.4337912113145784e-01 1.1897374835111962e-01  -4.8038873268992538e-01 -1.0984602523123410e-01 8.8850704819324652e-02  -4.3378830112901878e-01 -8.5697485556411393e-02 5.7940291341801564e-02  -3.8364190302153839e-01 -7.5037415711889974e-02 2.8041805559364818e-02  -3.3398611374672493e-01 -7.3490909539218705e-02 -8.7598682967888791e-04  -2.8546759258480492e-01 -8.1672216939070869e-02 -2.8935529963847684e-02  -2.3968319875887226e-01 -9.6740211383004593e-02 -5.3325385486716947e-02  -1.9799601186240354e-01 -1.1487991152286509e-01 -7.4482307523292116e-02  -1.6230718346284162e-01 -1.3376404738111630e-01 -9.1551863041578183e-02  -1.3164199670766780e-01 -1.4863127259251729e-01 -1.0671828043092803e-01  -1.0514260894337739e-01 -1.6080035489994143e-01 -1.1875358772539731e-01  -8.4265684664251078e-02 -1.6755519317286635e-01 -1.2728825261289883e-01  -6.6438440179913114e-02 -1.6825077313121334e-01 -1.3369426910346363e-01  -5.2065966255998748e-02 -1.6270706231641782e-01 -1.3873299681284659e-01  -4.1038557086200279e-02 -1.5359850404759151e-01 -1.4197826521348794e-01  -3.2965749350348697e-02 -1.3972964460738921e-01 -1.4350905371229514e-01  2.0315380444558043e-03 6.3271301837888330e-02 -1.0951574288495557e-01  4.6387392557091576e-04 6.4613112069683037e-02 -1.0914596205746512e-01  -2.8707591448571016e-04 6.8470327137965595e-02 -1.0940012213247133e-01  -1.3983476069974509e-03 7.2748187347091042e-02 -1.1143092705887435e-01  -2.4187151372337093e-03 7.6736856131935399e-02 -1.1439182082007815e-01  -3.7216437485897320e-03 8.1755705638051068e-02 -1.1664835880701221e-01  -4.4201402206025461e-03 8.6330874804412969e-02 -1.1943752525882265e-01  -6.3514454144291471e-03 9.0211408660419670e-02 -1.2148240002460803e-01  -8.0639943447755793e-03 9.1052411330780111e-02 -1.2298205464298102e-01  -9.8491875741924095e-03 9.2956314979051227e-02 -1.2464506644266643e-01  -1.1031594012048451e-02 9.1181520446816738e-02 -1.2440914970231168e-01  -1.3548468465312413e-02 8.9646416992153616e-02 -1.2256049671747343e-01  -1.4305461736206233e-02 8.7075250493787087e-02 -1.1997034516407364e-01  -1.6166611040399910e-02 8.2526579111161749e-02 -1.1484945936931001e-01  -1.9690050107320386e-02 7.8023140754070158e-02 -1.1098015272284042e-01  -2.0659424548854315e-02 7.2254321474467961e-02 -1.0486640422356991e-01  -2.4167012346755595e-02 6.5443203818600484e-02 -9.7341529279822397e-02  -2.6887059899315200e-02 5.7602065504244820e-02 -8.7209988137636127e-02  -3.0578184688827496e-02 4.9743152739290628e-02 -7.8015297739803383e-02  -3.3308967206090098e-02 4.2374436687535724e-02 -6.9765318654836289e-02  -3.4653786718921303e-02 3.5264814771836933e-02 -6.2662185524556574e-02  -3.6944213070730807e-02 2.8489458728016524e-02 -5.5544765954736113e-02  -3.9105840566350615e-02 2.3420320859690324e-02 -5.1990784498644013e-02  -4.0466329600693969e-02 1.9848136413096143e-02 -4.9541076019185233e-02  -5.0891745321297373e-02 -8.7223910052848977e-02 -2.8230994748474000e-02  -4.4607874001194689e-02 -9.5006052441560004e-02 -2.8421249178654996e-02  -3.6156124632756921e-02 -1.0207109996602828e-01 -2.9462243982584554e-02  -2.6087084038024309e-02 -1.1199462423546404e-01 -3.0578058923397735e-02  -1.3441587482325728e-02 -1.1989971143282648e-01 -3.2773519679644487e-02  1.2085360157079381e-04 -1.2590455066669334e-01 -3.5215715171590410e-02  1.4309112397452143e-02 -1.3100358263314280e-01 -3.7568856474488259e-02  2.9583297119789010e-02 -1.3611898258104504e-01 -4.1075922611797981e-02  4.7040503181296177e-02 -1.4018401269156491e-01 -4.4232351864164111e-02  6.6017212620853152e-02 -1.4181294346370704e-01 -4.7899876044897198e-02  8.5612270488202080e-02 -1.4284864273968451e-01 -4.9749582925937966e-02  1.0684817268473019e-01 -1.4057293081851233e-01 -5.2329458199364187e-02  1.2976087360970623e-01 -1.3548604662431371e-01 -5.5633646564065539e-02  1.5300300289605567e-01 -1.2780150557918762e-01 -5.7980238269670560e-02  1.7813799579233286e-01 -1.1480605158549692e-01 -5.8985674895315074e-02  2.0216579925930289e-01 -1.0079755462429962e-01 -5.9617519749982403e-02  2.2674520831613793e-01 -8.2247428773823864e-02 -5.9420845527774060e-02  2.5117040851227157e-01 -6.1776676161309524e-02 -5.8261761796971852e-02  2.7311899344796869e-01 -3.8556407760278195e-02 -5.6589326794928937e-02  2.9514824399272938e-01 -1.3380615874328127e-02 -5.4585710954298525e-02  3.1492059736521449e-01 1.1970062084051493e-02 -5.1196625667739533e-02  3.3315369997876998e-01 3.7026859004588228e-02 -4.7942675403443012e-02  3.4909713026270894e-01 6.0419350481426895e-02 -4.3110105168173408e-02  3.6169341314456954e-01 8.1717963502941915e-02 -3.9643021005106208e-02  3.7212623992167221e-01 1.0026083873440614e-01 -3.6974823651848711e-02  3.8138162474040876e-01 1.1422891184396938e-01 -3.5190971560237837e-02  3.8912396311086050e-01 1.2463708820840937e-01 -3.5253503602703830e-02  3.9286703291979491e-01 1.3053662571282951e-01 -3.4706946378590300e-02  3.9745771197811414e-01 1.4014733702829008e-01 -2.9710853356048141e-02  4.0460971097034376e-01 1.5527633702288299e-01 -2.5221922631773239e-02  4.1848066293527036e-01 1.8124042155757508e-01 -1.9264865933395929e-02  4.3831700874344121e-01 2.2077516697638841e-01 -1.0968427861322247e-02  4.6002353899473558e-01 2.6716432648420935e-01 2.1234392948632150e-04  4.8624882720181728e-01 3.2532731350452232e-01 1.6766917598662903e-02  5.1619607584409277e-01 3.9302235876240904e-01 3.6349182271214656e-02  5.4959303635801282e-01 4.7243185005094512e-01 6.0480767780515726e-02  5.8622091171114987e-01 5.5800811463946787e-01 8.9069515306869407e-02  6.2196428373924051e-01 6.4986204603235143e-01 1.2688641794108288e-01  6.5818266784500234e-01 7.4330380564913412e-01 1.6860241773631407e-01  6.9412117519205940e-01 8.3817960041971096e-01 2.1476140259230456e-01  7.2323958986859860e-01 9.2499075857656543e-01 2.6827310354499562e-01  7.4739355123079065e-01 1.0012691674986001e+00 3.2692884496440250e-01  7.6282001017904644e-01 1.0609192145843800e+00 3.9037628935813989e-01  7.6909056722597069e-01 1.1056430994674393e+00 4.5725549162723256e-01  7.6453728952349398e-01 1.1315273335001907e+00 5.2774341573131267e-01  7.4886239704873292e-01 1.1358663809708951e+00 6.0200881020046781e-01  7.1544141633417346e-01 1.1177785151750081e+00 6.7772512166243559e-01  6.7224165921764389e-01 1.0859945621770832e+00 7.5296907855773842e-01  6.2461207895774273e-01 1.0470726138946860e+00 8.2749908052845778e-01  5.7239752519367326e-01 1.0085907424095026e+00 8.9149430153971410e-01  5.2146606830227238e-01 9.6909228922008728e-01 9.5112354141670630e-01  4.7282012481098540e-01 9.3582489217525622e-01 9.9568742837297208e-01  4.2127128234843786e-01 9.0227215171847475e-01 1.0321143099418419e+00  3.5186327265616030e-01 8.7043824274910386e-01 1.0593675364310466e+00  2.7256593670373036e-01 8.4064984401693910e-01 1.0789893247053495e+00  1.5557766796552122e-01 8.0222938878629380e-01 1.0872491939211291e+00  1.7793433557119546e-02 7.6129923253736165e-01 1.0906329028447632e+00  -1.4203115549549492e-01 7.1284947380768637e-01 1.0869868405392646e+00  -3.0816847492611438e-01 6.5439667437553084e-01 1.0729305746288575e+00  -4.6864198352232922e-01 5.8834918948217907e-01 1.0526085593209173e+00  -5.9063982727807196e-01 5.0841489571695320e-01 1.0157465682525910e+00  -6.9465338924706321e-01 4.2142132979134816e-01 9.7311431168137141e-01  -7.4266431007941214e-01 3.1463418835494189e-01 9.1571000727354468e-01  -7.6229495939988656e-01 1.9761584873135454e-01 8.5295950129186549e-01  -7.4902683838535034e-01 7.2576349164082940e-02 7.8498882307468199e-01  -7.2772761644791695e-01 -5.1691151446328250e-02 7.1606383623554737e-01  -6.9739724413186710e-01 -1.6922633477738758e-01 6.4731081705489324e-01  -6.7346865968539193e-01 -2.7244379183150158e-01 5.8440090383427823e-01  -6.5765316814859198e-01 -3.5692577120162472e-01 5.2664389076503149e-01  -6.4848589305708115e-01 -4.2490845898369306e-01 4.7573779730396654e-01  -6.5094136621650245e-01 -4.6823599840916763e-01 4.3259949041662199e-01  -6.5967354940444389e-01 -4.9555667093967481e-01 3.9597349108074148e-01  -6.7178508773706813e-01 -5.0807342250555043e-01 3.6680139859323418e-01  -6.8569458021025020e-01 -5.1186721442407945e-01 3.4480905264131545e-01  -6.9831133038529480e-01 -5.0922126443966154e-01 3.2854910357047751e-01  -7.0759034809454757e-01 -5.0593970586820824e-01 3.1984389637643029e-01  -7.1125921309899753e-01 -5.0313098613030538e-01 3.1481227029118691e-01  -5.4656094413967786e-02 -7.8314513071693598e-02 -2.8427741467730340e-02  -5.2643755475048612e-02 -7.5813621287884381e-02 -2.9981305218792907e-02  -4.9843619355802747e-02 -6.9996894301736931e-02 -3.3601052310674916e-02  -4.5017257452288989e-02 -6.1861142678228086e-02 -3.9409442084078421e-02  -3.8734435105936244e-02 -5.2218216027946115e-02 -4.6013206451552845e-02  -3.1817517102661036e-02 -4.0962249702469727e-02 -5.5312081002743929e-02  -2.3156985884054265e-02 -2.9428642818945701e-02 -6.5766115864977659e-02  -1.4551745485399656e-02 -1.6228296761860390e-02 -7.7949004376507078e-02  -3.5672846402579690e-03 -5.4644277886880211e-03 -9.0906433124653047e-02  9.4918852073120688e-03 1.0884190964874931e-03 -1.0301622097519200e-01  2.5097343523233111e-02 3.9730950224914855e-03 -1.1602515829261233e-01  4.3065788777159948e-02 -4.7672650866183375e-04 -1.2700836438414456e-01  6.4859810192719275e-02 -9.1333035841058893e-03 -1.3625575729655029e-01  8.7791778784971908e-02 -2.1602714734196716e-02 -1.4265243625534418e-01  1.1090532914494430e-01 -3.8974936985630523e-02 -1.4344170625862268e-01  1.2755201280212961e-01 -5.7845442840990330e-02 -1.3645442014141343e-01  1.3955610970312335e-01 -7.1750260396304652e-02 -1.2236902997784296e-01  1.3585050866708240e-01 -8.2612662996808750e-02 -9.4640843593839410e-02  1.1565876574890363e-01 -7.5684315386100709e-02 -5.1723791938774841e-02  6.4749166357903370e-02 -4.3784780418464210e-02 1.0780537013844634e-02  -3.8068581210030594e-02 -1.2999835277394485e-02 9.2177897913195597e-02  -1.8330044584611416e-01 1.4367921346103173e-02 1.8877061717772065e-01  -3.6977641842879311e-01 1.9319467154600999e-02 3.0091217138779547e-01  -5.9462268718879019e-01 1.8320594218259000e-03 4.3125438458627052e-01  -8.4860384127542332e-01 -3.6583499552766387e-02 5.8514799735364798e-01  -1.1042288476351332e+00 -9.7375423822039717e-02 7.5623657126108657e-01  -1.3338027796303282e+00 -1.9404603603233861e-01 9.3373891174697876e-01  -1.4890556493127243e+00 -3.1405285272760081e-01 1.0920361680064952e+00  -1.5668933351411167e+00 -4.8727369408638022e-01 1.2224493345206286e+00  -1.5413923512156922e+00 -6.4317218072435367e-01 1.3115494337331419e+00  -1.4645254728575543e+00 -7.6371501478914294e-01 1.3759217968416888e+00  -1.2913798690319116e+00 -7.2444351623556102e-01 1.3969234317857255e+00  -1.0369226335042285e+00 -6.1070613582529365e-01 1.3787943772915467e+00  -7.3724071423319193e-01 -4.4148553062623475e-01 1.3337240232254053e+00  -4.8180497769267511e-01 -2.8250266282363962e-01 1.2695915814497720e+00  -3.0762753679791083e-01 -1.4717647184550001e-01 1.1994739900030575e+00  -2.0156732193268154e-01 -4.8196644325425302e-02 1.1191533278516648e+00  -1.2969838931265101e-01 9.7744937441676828e-03 1.0244160999001859e+00  -7.4597478966946851e-02 2.2666459652561900e-02 9.2013813682449597e-01  -3.9869712655916864e-02 7.4281987461247293e-03 8.1072938971083286e-01  9.7422091784124809e-03 -2.5314845492459603e-02 6.9047807304098974e-01  4.5215464756807280e-02 -8.9264914642178561e-02 5.7426166649121335e-01  3.1169398532944849e-02 -1.5558331662961594e-01 4.7368572601512304e-01  -1.8267396078573611e-02 -1.7660815157986307e-01 3.8244588422268738e-01  -6.0096858412468424e-02 -1.6068220634306979e-01 2.9798854947610209e-01  -8.9816281467035727e-02 -1.0590982523019339e-01 2.1582935144408485e-01  -9.6248208046027614e-02 -4.5767628976955299e-02 1.3891524153579382e-01  -9.0103773825782413e-02 -7.7035260830289230e-04 7.1766324310726201e-02  -7.0711007302164050e-02 2.7017965537387455e-02 1.0635940533005931e-02  -4.9891389234856101e-02 4.0770033471108434e-02 -4.1938976314629721e-02  -3.3727533854641487e-02 3.8628143218031229e-02 -8.5158790670199547e-02  -2.1089477944598693e-02 2.6010512334334570e-02 -1.1722430320392671e-01  -1.4501272603669386e-02 4.7275144125437686e-03 -1.3683513144583673e-01  -1.1240482002698410e-02 -1.7118459512090244e-02 -1.5189655732479715e-01  -1.0843780776625098e-02 -3.8747500512874726e-02 -1.5934285325850828e-01  -1.4764312303632985e-02 -6.0187513999453421e-02 -1.6168828875043828e-01  -1.9938594587428089e-02 -7.9777600975026952e-02 -1.6010103925937941e-01  -2.7916711708172309e-02 -9.9712559646694301e-02 -1.5614509978448968e-01  -3.5639408363097362e-02 -1.1825259624683586e-01 -1.5091067647820455e-01  -4.0535918851106453e-02 -1.3398393804818717e-01 -1.4730565586831548e-01  -4.1167649234641619e-02 -1.4204078481490104e-01 -1.4555757401096256e-01  -3.8873632284397622e-02 -1.4381820445487217e-01 -1.4399388720020995e-01  -3.4809733066417985e-02 -1.4060084263650127e-01 -1.4356141062753336e-01  -3.0739513565532121e-02 -1.3405493269623278e-01 -1.4367973707225992e-01  2.0815322460701938e-03 6.1752176142867210e-02 -1.1011221198549238e-01  3.6175251095702490e-03 6.0131672645296223e-02 -1.0855944126224390e-01  2.8357249758812408e-03 6.0376236116565077e-02 -1.0738088747126855e-01  2.0759754766185904e-03 6.1777712466487139e-02 -1.0695995365709585e-01  1.4205314021322191e-03 6.5177821771018482e-02 -1.0753575613485358e-01  4.7513130365665760e-04 7.5022196657613061e-02 -1.1178076402357381e-01  -3.6144947673020173e-03 8.5210467276768120e-02 -1.1643648088784660e-01  -5.4987444535565559e-03 9.2650950398367002e-02 -1.2227325456403405e-01  -8.8018403042523802e-03 9.5655326772980373e-02 -1.2726396866062328e-01  -1.0779875827945182e-02 9.3075461911644383e-02 -1.2537285027921041e-01  -1.5546101135853304e-02 8.6671912132424034e-02 -1.1953183251087619e-01  -1.8741699185361664e-02 7.6883986866556384e-02 -1.0777628259212142e-01  -2.4415155023851585e-02 6.3745945296207820e-02 -9.3965660180174243e-02  -3.2635130466864490e-02 4.8408691328134086e-02 -7.9282783663360751e-02  -3.7826602278865577e-02 3.2161522816586789e-02 -6.4626338454998086e-02  -3.9551445779020512e-02 2.1032696444653443e-02 -5.2134440288405866e-02  -4.0050225630360946e-02 1.7215134467033759e-02 -4.8541457604965095e-02  -4.0091824873781712e-02 1.8263936932990943e-02 -4.7131471086791936e-02  -4.0349527411842036e-02 1.9517952105491506e-02 -4.8082904868079521e-02  -4.1158213960422303e-02 2.0282274225225907e-02 -4.8194790680905222e-02  -4.2885377436280570e-02 1.5930624832660004e-02 -4.8381099734357717e-02  -4.8954707140374060e-02 9.8136343514208767e-03 -4.5558304440832954e-02  -5.6982361440485803e-02 3.5419793046159850e-04 -3.9677898700066744e-02  -6.7543047905445630e-02 -1.3956967530749390e-02 -3.3414433061052538e-02  -7.7765485318231228e-02 -3.1274076811479277e-02 -2.6092618480313825e-02  -8.8005188836388012e-02 -5.3022010714738776e-02 -1.7152098481064627e-02  -9.6996495659163143e-02 -7.7489934647419739e-02 -1.0141076567288698e-02  -1.0156891316923536e-01 -1.0670476716462292e-01 -4.7832521257792715e-03  -1.0484262603939926e-01 -1.3071738460171001e-01 -3.4242719949012691e-04  -1.0433691483187088e-01 -1.5540596093081990e-01 2.1444045801507264e-03  8.1777741567553349e-04 6.1242492730845692e-02 -1.0810534985406044e-01  1.1662225910587041e-03 5.7827981428833101e-02 -1.1296237045518112e-01  1.3579788407583242e-03 5.2730002760613875e-02 -1.1875623011468478e-01  9.5539763918174722e-04 4.0492925395791808e-02 -1.2636355709347580e-01  7.2764807913962910e-04 2.4569513539188556e-02 -1.3375780417582553e-01  1.4157381225821618e-04 5.9769818382325582e-03 -1.4153166558656333e-01  -7.9986488659136354e-04 -1.6745390464600128e-02 -1.4906340113597671e-01  -1.0756558240155921e-03 -4.0922724386368806e-02 -1.