<?xml version="1.0"?>
<VTKFile type="UnstructuredGrid"  version="0.1"  >
<UnstructuredGrid>
<Piece  NumberOfPoints="8385" NumberOfCells="35823">
<Points>
<DataArray  type="Float64"  NumberOfComponents="3"  format="ascii">0 0 -4000  0 250000 -4000  250000 0 0  250000 250000 0  130000 0 -60000  130000 250000 -60000  250000 0 -60000  250000 250000 -60000  72147.7 166878.6 0  86225.3 177671.7 0  72082.2 161278 0  80407.60000000001 166683.7 0  66765.10000000001 151053.8 0  70533.5 147695.4 0  88829.10000000001 164696.8 0  62768.1 132621.8 0  114956.1 180662.6 0  63924.4 130258.4 0  156213.5 216508.7 0  94617.8 155302.3 0  144307.5 195630.5 0  87231.39999999999 141931.8 0  68256.5 121278.3 0  69835.5 115711.4 0  95984.2 132464.1 0  116918.1 151520.9 0  96139.8 122416.1 0  78677.39999999999 102260.8 0  93451.5 115391.6 0  111847.4 131476.2 0  107207 116320.3 0  142564.4 147908.4 0  121370.1 121838.1 0  82154.39999999999 83011.2 0  84152.3 84289.39999999999 0  99259 96094.39999999999 0  106151.5 94923 0  159682.5 139591.9 0  136050.5 110604.8 0  111591.5 84279.10000000001 0  126001.6 88238.2 0  105758.7 68122.8 0  151826.4 109709.5 0  197157.2 140577 0  129859.4 33265.4 0  140000 0 0  136000 250000 0  4857.142857142332 250000 -3857.142857142872  9714.285714284615 250000 -3714.285714285747  14571.42857143168 250000 -3571.42857142848  19428.57142857481 250000 -3428.571428571329  24285.71428571539 250000 -3285.714285714253  29142.85714285597 250000 -3142.857142857177  33999.99999999657 250000 -3000.000000000101  38857.14285713715 250000 -2857.142857143025  43714.28571427773 250000 -2714.285714285949  48571.42857141832 250000 -2571.428571428873  53428.57142855891 250000 -2428.571428571797  58285.71428569948 250000 -2285.714285714721  63142.85714284007 250000 -2142.857142857645  67999.99999998066 250000 -2000.000000000569  72857.14285712125 250000 -1857.142857143493  77714.28571426184 250000 -1714.285714286416  82571.42857140242 250000 -1571.428571429341  87428.571428543 250000 -1428.571428572265  92285.71428568359 250000 -1285.714285715189  97142.85714282417 250000 -1142.857142858113  101999.9999999648 250000 -1000.000000001036  106857.1428571053 250000 -857.1428571439606  111714.2857142459 250000 -714.2857142868847  116571.4285713865 250000 -571.4285714298085  121428.5714285271 250000 -428.5714285727327  126285.7142856677 250000 -285.7142857156564  131142.8571428107 250000 -142.8571428585083  250000 240000.0000000016 0  250000 230000.0000000032 0  250000 220000.0000000048 0  250000 210000.0000000064 0  250000 200000.0000000079 0  250000 190000.0000000095 0  250000 180000.0000000111 0  250000 170000.0000000127 0  250000 160000.0000000143 0  250000 150000.0000000159 0  250000 140000.0000000175 0  250000 130000.0000000191 0  250000 119999.9999999916 0  250000 109999.9999999825 0  250000 99999.99999998408 0  250000 89999.99999998568 0  250000 79999.99999998725 0  250000 69999.99999998885 0  250000 59999.99999999045 0  250000 49999.99999999205 0  250000 39999.99999999366 0  250000 29999.99999999526 0  250000 19999.9999999968 0  250000 9999.999999998399 0  135172.4137931034 0 -137.9310344827583  130344.8275862069 0 -275.8620689655166  125517.2413793104 0 -413.7931034482749  120689.6551724138 0 -551.7241379310333  115862.0689655173 0 -689.6551724137912  111034.4827586208 0 -827.5862068965494  106206.8965517242 0 -965.5172413793075  101379.3103448277 0 -1103.448275862066  96551.72413793117 0 -1241.379310344824  91724.13793103464 0 -1379.310344827582  86896.5517241381 0 -1517.24137931034  82068.96551724157 0 -1655.172413793098  77241.37931034504 0 -1793.103448275856  72413.79310344851 0 -1931.034482758614  67586.20689655196 0 -2068.965517241373  62758.62068965542 0 -2206.896551724131  57931.03448275886 0 -2344.827586206889  53103.44827586231 0 -2482.758620689649  48275.86206896573 0 -2620.689655172408  43448.27586206916 0 -2758.620689655167  38620.68965517257 0 -2896.551724137927  33793.103448276 0 -3034.482758620686  28965.51724137944 0 -3172.413793103445  24137.93103448287 0 -3310.344827586204  19310.34482758629 0 -3448.275862068963  14482.7586206897 0 -3586.206896551723  9655.172413793145 0 -3724.137931034482  4827.586206896551 0 -3862.068965517241  0 4999.999999999225 -4000  0 9999.999999998096 -4000  0 14999.99999999756 -4000  0 19999.99999999726 -4000  0 24999.99999999649 -4000  0 29999.99999999545 -4000  0 34999.99999999351 -4000  0 39999.99999999275 -4000  0 44999.99999999197 -4000  0 49999.9999999912 -4000  0 54999.99999999042 -4000  0 59999.99999998965 -4000  0 64999.99999998888 -4000  0 69999.99999998808 -4000  0 74999.99999998731 -4000  0 79999.99999998655 -4000  0 84999.99999998577 -4000  0 89999.99999998501 -4000  0 94999.99999998423 -4000  0 99999.99999998347 -4000  0 104999.9999999827 -4000  0 109999.9999999819 -4000  0 114999.9999999811 -4000  0 119999.9999999804 -4000  0 124999.9999999824 -4000  0 130000.0000000079 -4000  0 135000.0000000178 -4000  0 140000.000000017 -4000  0 145000.0000000163 -4000  0 150000.0000000155 -4000  0 155000.0000000147 -4000  0 160000.000000014 -4000  0 165000.0000000132 -4000  0 170000.0000000124 -4000  0 175000.0000000116 -4000  0 180000.0000000109 -4000  0 185000.0000000101 -4000  0 190000.0000000093 -4000  0 195000.0000000085 -4000  0 200000.0000000078 -4000  0 205000.000000007 -4000  0 210000.0000000062 -4000  0 215000.0000000054 -4000  0 220000.0000000047 -4000  0 225000.0000000039 -4000  0 230000.0000000031 -4000  0 235000.0000000024 -4000  0 240000.0000000016 -4000  0 245000.0000000008 -4000  138499.992698711 4754.026372277331 0  137093.2670052012 9536.639699345635 0  135699.8836753657 14323.17697982435 0  134242.0997113028 19090.39455387465 0  132631.3534429766 23807.82160930602 0  130751.3712685147 28423.75111080412 0  128562.4170940472 32902.44582968431 0  126285.2564027428 37336.77035579942 0  123661.3951409534 41572.18842203188 0  120466.1639654971 45392.17900234455 0  116742.7600150611 48701.57094013265 0  112599.2779558244 51459.89351581372 0  108052.7620132346 53498.30186482816 0  103362.6013075687 55186.61489180412 0  98626.9445524631 56744.1075396087 0  93895.10465571457 58313.07723732995 0  89213.61083253716 60025.29196098565 0  84659.98679375931 62049.90630856762 0  80423.72342827682 64664.16689082998 0  77079.46520597988 68320.91799726382 0  75401.03926413733 72984.18687963787 0  75132.31546441223 77953.39118957664 0  75517.79269400188 82922.72841733029 0  75994.12798690467 87884.97931497527 0  76141.03644053877 92865.72190814259 0  75577.6917399208 97812.27627089612 0  74056.71099135675 102551.9930892217 0  71898.80264107142 107043.8044784894 0  69421.09707510214 111369.0872951042 0  66791.23439747586 115604.1050970619 0  64120.91357323291 119813.8417572768 0  61505.46198361652 124057.7414488965 0  59050.55973913459 128395.9995763311 0  56903.24970482702 132893.1998504455 0  55303.81367464051 137609.8368688517 0  54543.69409163466 142530.9149478115 0  54488.96440186739 147512.6695308264 0  54974.77359561732 152472.3067464133 0  55867.62888085351 157375.8602543657 0  57059.2217642535 162216.0105874235 0  58457.1304431001 167000.9860755429 0  59967.68958253603 171751.8163324134 0  61481.85702780542 176501.4740946017 0  63249.74457712872 181161.0445509208 0  65477.30866714627 185617.8308927955 0  68245.7959420751 189759.2433519008 0  71520.4315061924 193514.3385976385 0  75350.61144867241 196685.7937683813 0  79773.17101542671 198974.8606729538 0  84378.90699153654 200882.4207250944 0  88911.60265377768 202954.8336515224 0  93435.45084417483 205047.09581866 0  98032.2666486997 206976.2210864664 0  102616.0836544937 208935.8107130805 0  107113.0495121478 211085.573258506 0  111372.3937621359 213667.5068784722 0  114843.2448044628 217203.7046179156 0  116698.1230832934 221806.0799432901 0  117775.060870244 226673.1998860401 0  119571.7838315423 231305.7208116875 0  122475.2761019627 235353.0279900247 0  125742.3595464658 239117.4724032586 0  129161.5121633181 242745.2442007751 0  132614.792595325 246340.7012191151 0  250000 250000 -8921.902778285936  250000 250000 -19170.47581238532  250000 250000 -30942.99472097832  250000 250000 -44466.06850109496  250000 230769.2307692338 -60000  250000 211538.4615384677 -60000  250000 192307.6923077015 -60000  250000 173076.9230769353 -60000  250000 153846.1538461692 -60000  250000 134615.384615403 -60000  250000 115384.615384597 -60000  250000 96153.84615383085 -60000  250000 76923.07692306468 -60000  250000 57692.30769229849 -60000  250000 38461.53846153233 -60000  250000 19230.76923076616 -60000  250000 0 -44466.06850109696  250000 0 -30942.99472111472  250000 0 -19170.47581244904  250000 0 -8921.90277830635  232227.1661023966 0 -60000  216296.9260375522 0 -60000  202018.2515568125 0 -60000  189219.9167941597 0 -60000  177748.4479527209 0 -60000  167466.2824799582 0 -60000  158250.1197834204 0 -60000  149989.4414908582 0 -60000  142585.1882295191 0 -60000  135948.5681760333 0 -60000  232227.1661023966 250000 -60000  216296.9260375522 250000 -60000  202018.2515568125 250000 -60000  189219.9167941597 250000 -60000  177748.4479527209 250000 -60000  167466.2824799582 250000 -60000  158250.1197834204 250000 -60000  149989.4414908582 250000 -60000  142585.1882295191 250000 -60000  135948.5681760333 250000 -60000  130000 244047.61904762 -60000  130000 238095.23809524 -60000  130000 232142.85714286 -60000  130000 226190.47619048 -60000  130000 220238.0952381 -60000  130000 214285.7142857199 -60000  130000 208333.3333333399 -60000  130000 202380.9523809599 -60000  130000 196428.5714285799 -60000  130000 190476.1904761999 -60000  130000 184523.8095238199 -60000  130000 178571.4285714399 -60000  130000 172619.0476190599 -60000  130000 166666.6666666799 -60000  130000 160714.2857142999 -60000  130000 154761.9047619199 -60000  130000 148809.5238095399 -60000  130000 142857.1428571599 -60000  130000 136904.7619047798 -60000  130000 130952.3809523998 -60000  130000 125000.0000000169 -60000  130000 119047.6190476054 -60000  130000 113095.2380
[...]
<PointData  Vectors="State"> 
<DataArray  type="Float64"  Name="State"  NumberOfComponents="3" format="ascii">3.9363174868942752e-01 1.3031828216198138e-01 -7.8726460021842429e-02  -7.3917771926011466e-01 -5.0264916234244383e-01 1.4783577946868875e-01  0.0000000000000000e+00 -1.1138728311237160e-02 5.6922629756611012e-02  0.0000000000000000e+00 -6.9718218485600808e-02 3.7962816741071653e-01  -6.1971287239282219e-02 -1.7238719612842765e-01 5.0971267132689096e-02  7.3870551592357739e-02 -1.0324422585779808e-01 -6.0707033740907107e-02  0.0000000000000000e+00 8.5557106608139130e-02 6.4136607283714314e-02  0.0000000000000000e+00 -1.8152775827193539e-02 3.9231653285577833e-01  -3.9678209926227437e-01 8.7831729302931157e-03 2.4367380083638182e-01  -2.5327374974466627e-01 -6.6607740805667087e-02 1.9707509153780348e-02  -5.3680983712703079e-01 -1.3185396193290479e-02 3.3724918032895274e-01  -4.1162639420543246e-01 -6.0003120772681280e-02 1.9589083784629005e-01  -8.4958181017718359e-01 -1.3845679895352877e-02 5.1420204927443935e-01  -9.5745940634554638e-01 -1.0136520937571114e-01 5.8534980788373392e-01  -4.5368190865904207e-01 -1.3280755427731086e-01 1.2699600905174327e-01  -1.1461261761376769e+00 -2.4470771376622139e-01 7.4315969516933844e-01  -2.8498167676704933e-01 -1.6777307265103797e-01 2.5563614912476443e-02  -1.1690850711757907e+00 -2.9417718798265630e-01 7.6619479071159935e-01  -1.6000496889299304e-01 -5.1407087528446992e-02 1.6533798899663529e-01  -6.4494434068011863e-01 -2.0039823294282055e-01 1.6249032303483130e-01  -1.9730038044560069e-01 -8.6695975085286703e-02 1.3301173008848852e-01  -9.5909218696067333e-01 -2.4596581820152191e-01 4.7353704754591891e-01  -1.1826748366414781e+00 -3.8685702137575961e-01 8.4882461251896602e-01  -1.0482238849215066e+00 -3.9615923197994313e-01 8.5907753950440080e-01  -8.7341443975395461e-01 -2.6393538730341382e-01 3.6089531413987874e-01  -5.5643895481240957e-01 -1.8781392519821746e-01 2.1479695875627678e-02  -8.0025005312752384e-01 -2.6380159712791224e-01 3.7072450434554760e-01  -6.5068789787149095e-01 -3.9340593753115044e-01 5.4864139907585752e-01  -7.5183361521476932e-01 -2.9079651199744649e-01 4.1190958076421191e-01  -6.5692693905505339e-01 -1.6385819220262332e-01 8.9630679782607567e-02  -5.9435003660402119e-01 -1.5129319778840797e-01 1.5624573762165164e-01  -4.0945265447734386e-01 -8.8708517340731916e-02 8.7172626593729416e-02  -5.2398592973610070e-01 -7.8628212671900927e-02 5.0428617567462128e-02  -2.3697593980586212e-01 -2.3814706515212605e-01 1.4107136407225682e-01  -2.5287066581777545e-01 -2.4049530243491685e-01 1.5218803731684019e-01  -3.7360806996235052e-01 -1.7220400270825859e-01 1.7378695751285830e-01  -3.2007056447451726e-01 -9.7329274358292084e-02 1.0986289126411758e-01  -3.1438900336362408e-01 -4.0781309449395571e-02 1.5586234959254475e-01  -3.6025506929499340e-01 4.1305869867595699e-04 5.7238099426269333e-02  -1.8790823105832558e-01 -3.9597605046129969e-02 6.0598228677176430e-02  -2.0826052482090737e-01 1.3733289995697237e-02 4.7897458053727880e-02  -5.3227010956637719e-02 -4.5954613457753507e-02 2.6107014721834902e-02  -2.8670792676451012e-01 6.9592398586988740e-03 1.0451370944433450e-01  -1.4623053169956682e-01 -3.5134857892042841e-02 2.6349469239526474e-01  -2.2837038241085534e-02 -2.0859748967541201e-02 1.5868127362652192e-02  4.9983761896361875e-03 -2.1835622315968490e-02 2.6830589954266029e-02  -1.7235348968660741e-01 -4.8495764523602485e-02 5.7459033283059173e-02  -7.3770271132516207e-01 -4.9905944122443663e-01 1.4722706967812230e-01  -7.3372945985179061e-01 -4.9129446855521536e-01 1.4611427863007218e-01  -7.2488586243617825e-01 -4.7871134834550899e-01 1.4289244392304465e-01  -7.2090363219816811e-01 -4.6418834562721695e-01 1.4286796900026302e-01  -7.1358657017486449e-01 -4.4416000211607465e-01 1.4213013915778341e-01  -6.9647014016426001e-01 -4.1825422885540470e-01 1.3584784481762091e-01  -6.7879432777299353e-01 -3.8879361167079685e-01 1.3318853645849749e-01  -6.5534425423009790e-01 -3.5900339194395092e-01 1.2652694019664520e-01  -6.2634676813095347e-01 -3.2320013797735270e-01 1.1957697027315402e-01  -5.8948602803728445e-01 -2.8711073970286127e-01 1.1021838910817762e-01  -5.4848696867217606e-01 -2.5217533076475340e-01 1.0120203739586593e-01  -5.0025662532456883e-01 -2.1917202735288163e-01 9.0293121923230732e-02  -4.4900455619508906e-01 -1.9024650844162871e-01 8.0160610901367418e-02  -3.9544057635795776e-01 -1.6680680731617056e-01 6.9574086863775406e-02  -3.4173090784705845e-01 -1.5065205232044102e-01 5.9545401137199132e-02  -2.9101065936316400e-01 -1.3801396386630443e-01 4.7001120302861847e-02  -2.4713854935074636e-01 -1.2685889228440933e-01 3.3951221175214520e-02  -2.1301490531397918e-01 -1.1838767404277434e-01 1.8643903358208404e-02  -1.8792838654203661e-01 -1.1223610670654292e-01 7.8526039411662384e-03  -1.7312407153908160e-01 -1.0364456449331834e-01 -3.3397701417027955e-03  -1.6424291813319819e-01 -9.5754339839254632e-02 -8.4265147877355048e-03  -1.5981440779088474e-01 -8.7593945678934110e-02 -1.0032343894371193e-02  -1.5971580538267363e-01 -7.9336402494328662e-02 -6.9545600326580727e-03  -1.6160375421867057e-01 -7.1870600535739293e-02 -6.7628234233925878e-04  -1.6421972933882284e-01 -6.4320982647428096e-02 1.0034963452477796e-02  -1.6731041024275897e-01 -5.7841022754429934e-02 2.3149564042524492e-02  -1.7049368836140252e-01 -5.2953869086064510e-02 3.9018321520753442e-02  0.0000000000000000e+00 -6.4045525394630543e-02 3.7184688530327298e-01  0.0000000000000000e+00 -5.9087050066659194e-02 3.6491461802009623e-01  0.0000000000000000e+00 -5.4866355478030288e-02 3.5959823293379056e-01  0.0000000000000000e+00 -5.2255379521335944e-02 3.5475779811255426e-01  0.0000000000000000e+00 -4.9711569939640141e-02 3.4958080082085580e-01  0.0000000000000000e+00 -4.7428837169171609e-02 3.4507477779060836e-01  0.0000000000000000e+00 -4.6110628934736345e-02 3.3984635165383886e-01  0.0000000000000000e+00 -4.4528068637260186e-02 3.3372742939008149e-01  0.0000000000000000e+00 -4.3668150793126713e-02 3.2604027471854824e-01  0.0000000000000000e+00 -4.2902670316592235e-02 3.1658394874106810e-01  0.0000000000000000e+00 -4.1470729816865552e-02 3.0603599198635933e-01  0.0000000000000000e+00 -4.1122490645862965e-02 2.9347677702438973e-01  0.0000000000000000e+00 -3.9984821180785508e-02 2.7822043750003717e-01  0.0000000000000000e+00 -3.9337841410888974e-02 2.6146836588193423e-01  0.0000000000000000e+00 -3.7909329282838425e-02 2.4382753891641840e-01  0.0000000000000000e+00 -3.6144972787125432e-02 2.2592396772322773e-01  0.0000000000000000e+00 -3.4440740017353880e-02 2.0531619571820323e-01  0.0000000000000000e+00 -3.1718632956257133e-02 1.8551147696782003e-01  0.0000000000000000e+00 -2.9119034793592524e-02 1.6535081161863577e-01  0.0000000000000000e+00 -2.6002385014577127e-02 1.4551441559672340e-01  0.0000000000000000e+00 -2.2762756390512277e-02 1.2645365842064624e-01  0.0000000000000000e+00 -1.9426572378131741e-02 1.0772260974639007e-01  0.0000000000000000e+00 -1.6532678665003093e-02 8.9936934990402423e-02  0.0000000000000000e+00 -1.3777993684282910e-02 7.2940046277052306e-02  1.1181828264082212e-02 -2.6214511404328535e-02 2.8329305207403233e-02  1.7523159456384316e-02 -3.1062401414323249e-02 2.9324055877811030e-02  2.4077959964677959e-02 -3.6751686449182877e-02 3.0144709032231438e-02  3.0563365129979311e-02 -4.3549875114751543e-02 3.0432684382141383e-02  3.7358751976136147e-02 -5.0963678308584698e-02 2.8988000733449315e-02  4.4372240003706910e-02 -5.8639594244275638e-02 2.6729296347644885e-02  5.1944729670713015e-02 -6.6795165709202395e-02 2.3334730791127217e-02  6.0429716226232708e-02 -7.4592959166597417e-02 1.8755066138446342e-02  7.0356230774430595e-02 -8.1860693070659671e-02 1.3675373146873634e-02  8.1676097133206171e-02 -8.8222481258273963e-02 8.1212594771352207e-03  9.3647046177767826e-02 -9.2931165641366248e-02 2.4421399705183006e-03  1.0785966266682920e-01 -9.5518583688274220e-02 -3.3781197244545278e-03  1.2309252523114156e-01 -9.5454331095773587e-02 -7.4835728938541851e-03  1.3965004018380867e-01 -9.1755943100476689e-02 -1.0558562962929095e-02  1.5547339705436705e-01 -8.3672334737656992e-02 -1.3094158053551578e-02  1.7156188856985602e-01 -7.3173697766647269e-02 -1.6293401325783542e-02  1.8881743687177824e-01 -5.7092042995085315e-02 -1.9994411197680667e-02  2.0810453521298766e-01 -3.8989798667461259e-02 -2.5779147615016196e-02  2.2923696917189021e-01 -1.8539491128465705e-02 -3.2843309018812536e-02  2.5210715996536970e-01 4.6298496907568208e-03 -3.9648694326147184e-02  2.7404241904868482e-01 2.7291786810203587e-02 -4.4473929074010168e-02  2.9667919669951953e-01 4.8916643938028158e-02 -5.0385411209732209e-02  3.1943153464381902e-01 6.9048958681736036e-02 -5.7318343700722751e-02  3.4374632803629745e-01 8.6430381683296448e-02 -6.5862301383799893e-02  3.5837304038398682e-01 1.0076061810445533e-01 -6.9895286070119619e-02  3.7329431426547044e-01 1.1202113218411698e-01 -7.3683459229514914e-02  3.8437860223766501e-01 1.2175917394638085e-01 -7.6959651190538186e-02  3.9086749059841747e-01 1.2722269948453288e-01 -7.8395555796140035e-02  3.9656808586731285e-01 1.3728621493550458e-01 -7.9313526096580655e-02  4.0247021766017754e-01 1.5134379195437075e-01 -8.0494280073270641e-02  4.1284167784750636e-01 1.7659320587046329e-01 -8.2568834282974887e-02  4.2832695890051736e-01 2.1546737016014297e-01 -8.5665410569501249e-02  4.4592841742910849e-01 2.6102355176670272e-01 -8.9184536494565356e-02  4.6720117008564210e-01 3.1968967186960645e-01 -9.3439750968609792e-02  4.9115909768606802e-01 3.8868268220267405e-01 -9.8231822859267348e-02  5.1735154419917773e-01 4.6809483836972682e-01 -1.0347149779088005e-01  5.4512220180924298e-01 5.5284931259641446e-01 -1.0902363714917464e-01  5.7205487429781354e-01 6.4510555380116308e-01 -1.1441383114229585e-01  5.9882564658799253e-01 7.3992892830699164e-01 -1.1976455264087926e-01  6.2518470551606387e-01 8.3486149074184435e-01 -1.2503722319958765e-01  6.4491227247976646e-01 9.2146653570391890e-01 -1.2898268968025112e-01  6.5838633909835731e-01 9.9716314861437594e-01 -1.3167485519411914e-01  6.6195363212108815e-01 1.0565007069068069e+00 -1.3239050098884050e-01  6.5605613014580721e-01 1.1011749340046699e+00 -1.3121687550386260e-01  6.3898590818728662e-01 1.1283385626348210e+00 -1.2779744935411208e-01  6.0895420074880025e-01 1.1345109941013773e+00 -1.2179086513999433e-01  5.6277860645176092e-01 1.1175224367677383e+00 -1.1255436535965592e-01  5.0769814209103692e-01 1.0872964489416066e+00 -1.0154001299666290e-01  4.4759834400102694e-01 1.0494733278895017e+00 -8.9518417603505818e-02  3.8450581719133992e-01 1.0102156607193289e+00 -7.6901868800193063e-02  3.2299257153826155e-01 9.6989812959664168e-01 -6.4596930321612581e-02  2.6720829089285481e-01 9.3690975345888639e-01 -5.3441136861342498e-02  2.0973879004932752e-01 9.0376184687791949e-01 -4.1949385236928781e-02  1.3751042300942032e-01 8.7194771512244940e-01 -2.7500999275854955e-02  5.6998616187948964e-02 8.4184169732962177e-01 -1.1399902883848276e-02  -5.8229153621552489e-02 8.0177392420455484e-01 1.1646423977462860e-02  -1.9279368808790187e-01 7.5864541111466199e-01 3.8559464355223505e-02  -3.4601692210200458e-01 7.0994107108426885e-01 6.9203855868276681e-02  -5.0307014751623969e-01 6.5071270088573729e-01 1.0061444254504638e-01  -6.5302385413226749e-01 5.8571883940035008e-01 1.3060426673562281e-01  -7.6304623070719546e-01 5.0480618246295161e-01 1.5261159494747711e-01  -8.5401099870323138e-01 4.1686690006821014e-01 1.7080223097025404e-01  -8.8965936627542153e-01 3.0984371791781962e-01 1.7793298695258630e-01  -8.9626025497322681e-01 1.9351627264008492e-01 1.7925151016763410e-01  -8.6878763654713642e-01 6.8154960504827944e-02 1.7375862991701169e-01  -8.3387627334641057e-01 -5.7380721837387544e-02 1.6677236586081107e-01  -7.9004449903710539e-01 -1.7408087857572829e-01 1.5801040593531704e-01  -7.5447275862367569e-01 -2.7749270872412185e-01 1.5089405632349148e-01  -7.2753372668425387e-01 -3.6188515625096040e-01 1.4550781553304759e-01  -7.0921456191737664e-01 -4.3035237279931216e-01 1.4184170117438044e-01  -7.0375562148628945e-01 -4.7230748639733811e-01 1.4075015700475918e-01  -7.0460814139142691e-01 -4.9827183473400444e-01 1.4092143857777129e-01  -7.1007607008434026e-01 -5.1058888697340843e-01 1.4201440749375543e-01  -7.1699443864564472e-01 -5.1460425514485042e-01 1.4339838031197838e-01  -7.2579476564953083e-01 -5.1224590696178551e-01 1.4515992965627031e-01  -7.3290621697431579e-01 -5.0810811807527834e-01 1.4658111774369240e-01  -7.3705889425586513e-01 -5.0494386691017823e-01 1.4741174439217877e-01  1.2713239850404030e-03 -2.1559877090357466e-02 2.6126033728798646e-02  -3.8382626754043902e-03 -2.1560548511978063e-02 2.3967598925736067e-02  -8.9775890527129792e-03 -2.1902127179342739e-02 2.1936023851857087e-02  -1.3724754287412601e-02 -2.2412973018742711e-02 1.9583927121091093e-02  -1.7432082300061377e-02 -2.2289800291355310e-02 1.7738897774097383e-02  -1.9498010800982658e-02 -2.2254629492126605e-02 1.6171556688954206e-02  -2.0115767440612935e-02 -2.2454200336573592e-02 1.4624052541703663e-02  -1.9608511698381435e-02 -2.1356674934024544e-02 1.3968565496660999e-02  -1.7926687867407178e-02 -2.0655504275707112e-02 1.3777194654951608e-02  -1.4730045919339818e-02 -2.0616479393937813e-02 1.3014724873379660e-02  -8.7563458074142002e-03 -2.1679347356826754e-02 1.1294655382271167e-02  -3.3847733575696763e-03 -2.7006017521459258e-02 8.9639733265562474e-03  4.2143539029964924e-03 -3.4602593033801525e-02 4.4220299515229109e-03  1.3298628770975195e-02 -4.3166551010599095e-02 -3.9227274690188289e-04  2.1915117888177831e-02 -5.5859506024405876e-02 -7.9000807996095646e-03  2.6097016542900125e-02 -6.8216115473135150e-02 -1.4156806357706470e-02  2.9601015349720896e-02 -8.1599117887488568e-02 -1.9753647899026176e-02  2.6393295327081307e-02 -9.7426742434629079e-02 -2.1825194808286211e-02  1.4447386217405184e-02 -1.0610565021858259e-01 -2.2281810283631489e-02  -1.5091647304995938e-02 -1.1867631094571043e-01 -8.7535360262700600e-03  -7.4819751697095468e-02 -1.4201460943942676e-01 2.6175629774894713e-02  -1.5426911480095823e-01 -1.7946719782730583e-01 7.3139425872753253e-02  -2.4432928886537311e-01 -2.3085252568297066e-01 1.5314077235356344e-01  -3.4125422429688701e-01 -2.8918730514112856e-01 2.4500747832074729e-01  -4.4978622976450167e-01 -3.3257176486999562e-01 3.5527847466184509e-01  -5.6352403067780454e-01 -3.6837441860074771e-01 4.8464363034823654e-01  -6.8691999739321463e-01 -3.9558371078229360e-01 6.1530102702715250e-01  -8.1532196454497496e-01 -4.0689577749233297e-01 7.4053810637817308e-01  -9.3390777516047685e-01 -4.0005420992687213e-01 8.4102156743623602e-01  -1.0483033525050560e+00 -3.7068593502408326e-01 8.7246585687888267e-01  -1.1511831767074501e+00 -3.7702828368192798e-01 8.4174626935526975e-01  -1.1613406913933981e+00 -3.0488194518445011e-01 7.7536276740692245e-01  -1.1024050858476206e+00 -2.2816368470043069e-01 7.0471846404472793e-01  -9.9059186092173335e-01 -1.1597324546488966e-01 6.6215345048607510e-01  -8.9924447418577913e-01 3.7199430739770240e-04 5.5901896625200442e-01  -7.9154710133191597e-01 9.4303427909743054e-02 4.6880897445394204e-01  -7.0863837666741769e-01 1.6520418942627646e-01 4.0706806147159741e-01  -6.1116564587483646e-01 2.0427162349026029e-01 3.3217550186295292e-01  -5.2242206646761224e-01 2.1262872023586049e-01 2.4236053172431968e-01  -4.4407793480425800e-01 1.6759911082980147e-01 1.8876458124294659e-01  -3.6577803224304062e-01 1.1497793121023749e-01 1.5281275849170908e-01  -2.8629085677909200e-01 5.5447263148860088e-02 1.2050054845196657e-01  -2.2981004610430766e-01 1.9011029060925430e-02 9.1805055073301459e-02  -1.9132429778866966e-01 -5.5834454122717951e-03 4.8168115150005075e-02  -1.6419628034199940e-01 -3.4601561808640539e-02 1.4599570695408032e-02  -1.6028319562543450e-01 -3.7678712367134659e-02 -1.4478672244190612e-02  -1.5947636400443763e-01 -4.3422876923878216e-02 -2.5719545020231740e-02  -1.5744286901875612e-01 -5.0452388517883882e-02 -3.3295646527850158e-02  -1.5387500403203444e-01 -5.5921361101682984e-02 -3.5086338708040586e-02  -1.5322315743148826e-01 -6.1966160193610197e-02 -3.1670644140983431e-02  -1.5372959242556380e-01 -7.2612446785326953e-02 -2.6442789887837128e-02  -1.5296034235450018e-01 -8.1601991083529835e-02 -1.3441855901941187e-02  -1.5120128760109092e-01 -9.1459174116502617e-02 3.8954933381253449e-03  -1.4882491963557551e-01 -9.3969817775680642e-02 2.0414013478939549e-02  -1.4484394115774904e-01 -9.2812779959981342e-02 3.4752441795596646e-02  -1.4104534374091218e-01 -9.1814468082317663e-02 4.6551236386950141e-02  -1.3809332660067453e-01 -8.5394652453353148e-02 5.2408040202614040e-02  -1.3695386011496402e-01 -7.9282627769314010e-02 5.2792495113144912e-02  -1.3693106827296761e-01 -7.4799363188838258e-02 4.9019902075554671e-02  -1.4079862786025954e-01 -7.0352268980639190e-02 4.4466727719340855e-02  -1.4560426064117091e-01 -6.5266381204676149e-02 4.2444409239482360e-02  -1.5273368343153396e-01 -6.0172732602894352e-02 4.2700911228049261e-02  -1.5956987818845716e-01 -5.5049329925484287e-02 4.5497831943810622e-02  -1.6712752659072519e-01 -5.1532478480946275e-02 5.0022262770344772e-02  0.0000000000000000e+00 -6.2192475309278003e-02 3.8446773267397044e-01  0.0000000000000000e+00 -5.2197456280047717e-02 3.8846197323887088e-01  0.0000000000000000e+00 -4.0973351972236859e-02 3.9026047750295662e-01  0.0000000000000000e+00 -3.0533324803835055e-02 3.9183749396273226e-01  0.0000000000000000e+00 -2.0635691828402358e-02 3.7855437108952728e-01  0.0000000000000000e+00 -1.9456563713543710e-02 3.6935348953277125e-01  0.0000000000000000e+00 -1.4951253752402400e-02 3.6232576141408612e-01  0.0000000000000000e+00 -3.2236990005879121e-03 3.5393909628826464e-01  0.0000000000000000e+00 1.2134749724268624e-02 3.4000283433803585e-01  0.0000000000000000e+00 2.9288838584571351e-02 3.2242963626915883e-01  0.0000000000000000e+00 4.8717589417093060e-02 2.9174833700571584e-01  0.0000000000000000e+00 6.2781888757824603e-02 2.5572355968267196e-01  0.0000000000000000e+00 7.3554815432658266e-02 2.1524683949596538e-01  0.0000000000000000e+00 8.0420720117425182e-02 1.7395410411469117e-01  0.0000000000000000e+00 8.3784184009884452e-02 1.3310676950600095e-01  0.0000000000000000e+00 8.5270061152476220e-02 9.6972362844286702e-02  0.0000000000000000e+00 5.9479058667323559e-02 6.3274506342518910e-02  0.0000000000000000e+00 3.7079783571878709e-02 6.2189307727714631e-02  0.0000000000000000e+00 1.8941191345162683e-02 6.0897066660940129e-02  0.0000000000000000e+00 2.9736983554227016e-03 5.9003020015664667e-02  3.9984992042131276e-04 8.5426214988952115e-02 6.0681089723335697e-02  1.4574743622625449e-03 8.3597462943642634e-02 5.2455314267909788e-02  1.4013922873789407e-03 7.9186591517234381e-02 4.2337383176774983e-02  1.5140277920203888e-03 7.2662709137793269e-02 3.2902357721436737e-02  1.1625907722596469e-03 6.3395475635548065e-02 2.4882650322330845e-02  6.6388466767199495e-04 4.9852048226476466e-02 2.0180685181280082e-02  -1.4960498496366648e-03 3.1108031897925374e-02 1.8811858448143950e-02  -5.0602663604077508e-04 2.1647768963768089e-03 2.5966509316106137e-02  -5.2062588824691699e-03 -3.2834097896089660e-02 3.2328291541139198e-02  -1.4844304994044493e-02 -8.4555013016927250e-02 4.6096596178155182e-02  1.0942739435480291e-02 -1.9807171237453174e-02 3.8242644715941321e-01  2.1691153305837950e-02 -2.1659442145813411e-02 3.6090989532207340e-01  3.1273343986881051e-02 -2.1544835658259230e-02 3.3073297976391730e-01  4.1218750480520261e-02 -2.4912909275351624e-02 2.9129584595146507e-01  4.7176751269877498e-02 -2.6649273842187123e-02 2.5011215908657286e-01  5.3674658113134280e-02 -3.1024065675256850e-02 2.0457237556709751e-01  5.7893610431225123e-02 -3.8630013976310905e-02 1.5753757178694139e-01  5.6600295401451173e-02 -5.0889728362986102e-02 1.0966607088932838e-01  5.8284098735919269e-02 -6.6339220789995990e-02 6.1149234143674548e-02  6.0370771908067916e