<?xml version="1.0"?>
<VTKFile type="UnstructuredGrid"  version="0.1"  >
<UnstructuredGrid>
<Piece  NumberOfPoints="8385" NumberOfCells="35823">
<Points>
<DataArray  type="Float64"  NumberOfComponents="3"  format="ascii">0 0 -4000  0 250000 -4000  250000 0 0  250000 250000 0  130000 0 -60000  130000 250000 -60000  250000 0 -60000  250000 250000 -60000  72147.7 166878.6 0  86225.3 177671.7 0  72082.2 161278 0  80407.60000000001 166683.7 0  66765.10000000001 151053.8 0  70533.5 147695.4 0  88829.10000000001 164696.8 0  62768.1 132621.8 0  114956.1 180662.6 0  63924.4 130258.4 0  156213.5 216508.7 0  94617.8 155302.3 0  144307.5 195630.5 0  87231.39999999999 141931.8 0  68256.5 121278.3 0  69835.5 115711.4 0  95984.2 132464.1 0  116918.1 151520.9 0  96139.8 122416.1 0  78677.39999999999 102260.8 0  93451.5 115391.6 0  111847.4 131476.2 0  107207 116320.3 0  142564.4 147908.4 0  121370.1 121838.1 0  82154.39999999999 83011.2 0  84152.3 84289.39999999999 0  99259 96094.39999999999 0  106151.5 94923 0  159682.5 139591.9 0  136050.5 110604.8 0  111591.5 84279.10000000001 0  126001.6 88238.2 0  105758.7 68122.8 0  151826.4 109709.5 0  197157.2 140577 0  129859.4 33265.4 0  140000 0 0  136000 250000 0  4857.142857142332 250000 -3857.142857142872  9714.285714284615 250000 -3714.285714285747  14571.42857143168 250000 -3571.42857142848  19428.57142857481 250000 -3428.571428571329  24285.71428571539 250000 -3285.714285714253  29142.85714285597 250000 -3142.857142857177  33999.99999999657 250000 -3000.000000000101  38857.14285713715 250000 -2857.142857143025  43714.28571427773 250000 -2714.285714285949  48571.42857141832 250000 -2571.428571428873  53428.57142855891 250000 -2428.571428571797  58285.71428569948 250000 -2285.714285714721  63142.85714284007 250000 -2142.857142857645  67999.99999998066 250000 -2000.000000000569  72857.14285712125 250000 -1857.142857143493  77714.28571426184 250000 -1714.285714286416  82571.42857140242 250000 -1571.428571429341  87428.571428543 250000 -1428.571428572265  92285.71428568359 250000 -1285.714285715189  97142.85714282417 250000 -1142.857142858113  101999.9999999648 250000 -1000.000000001036  106857.1428571053 250000 -857.1428571439606  111714.2857142459 250000 -714.2857142868847  116571.4285713865 250000 -571.4285714298085  121428.5714285271 250000 -428.5714285727327  126285.7142856677 250000 -285.7142857156564  131142.8571428107 250000 -142.8571428585083  250000 240000.0000000016 0  250000 230000.0000000032 0  250000 220000.0000000048 0  250000 210000.0000000064 0  250000 200000.0000000079 0  250000 190000.0000000095 0  250000 180000.0000000111 0  250000 170000.0000000127 0  250000 160000.0000000143 0  250000 150000.0000000159 0  250000 140000.0000000175 0  250000 130000.0000000191 0  250000 119999.9999999916 0  250000 109999.9999999825 0  250000 99999.99999998408 0  250000 89999.99999998568 0  250000 79999.99999998725 0  250000 69999.99999998885 0  250000 59999.99999999045 0  250000 49999.99999999205 0  250000 39999.99999999366 0  250000 29999.99999999526 0  250000 19999.9999999968 0  250000 9999.999999998399 0  135172.4137931034 0 -137.9310344827583  130344.8275862069 0 -275.8620689655166  125517.2413793104 0 -413.7931034482749  120689.6551724138 0 -551.7241379310333  115862.0689655173 0 -689.6551724137912  111034.4827586208 0 -827.5862068965494  106206.8965517242 0 -965.5172413793075  101379.3103448277 0 -1103.448275862066  96551.72413793117 0 -1241.379310344824  91724.13793103464 0 -1379.310344827582  86896.5517241381 0 -1517.24137931034  82068.96551724157 0 -1655.172413793098  77241.37931034504 0 -1793.103448275856  72413.79310344851 0 -1931.034482758614  67586.20689655196 0 -2068.965517241373  62758.62068965542 0 -2206.896551724131  57931.03448275886 0 -2344.827586206889  53103.44827586231 0 -2482.758620689649  48275.86206896573 0 -2620.689655172408  43448.27586206916 0 -2758.620689655167  38620.68965517257 0 -2896.551724137927  33793.103448276 0 -3034.482758620686  28965.51724137944 0 -3172.413793103445  24137.93103448287 0 -3310.344827586204  19310.34482758629 0 -3448.275862068963  14482.7586206897 0 -3586.206896551723  9655.172413793145 0 -3724.137931034482  4827.586206896551 0 -3862.068965517241  0 4999.999999999225 -4000  0 9999.999999998096 -4000  0 14999.99999999756 -4000  0 19999.99999999726 -4000  0 24999.99999999649 -4000  0 29999.99999999545 -4000  0 34999.99999999351 -4000  0 39999.99999999275 -4000  0 44999.99999999197 -4000  0 49999.9999999912 -4000  0 54999.99999999042 -4000  0 59999.99999998965 -4000  0 64999.99999998888 -4000  0 69999.99999998808 -4000  0 74999.99999998731 -4000  0 79999.99999998655 -4000  0 84999.99999998577 -4000  0 89999.99999998501 -4000  0 94999.99999998423 -4000  0 99999.99999998347 -4000  0 104999.9999999827 -4000  0 109999.9999999819 -4000  0 114999.9999999811 -4000  0 119999.9999999804 -4000  0 124999.9999999824 -4000  0 130000.0000000079 -4000  0 135000.0000000178 -4000  0 140000.000000017 -4000  0 145000.0000000163 -4000  0 150000.0000000155 -4000  0 155000.0000000147 -4000  0 160000.000000014 -4000  0 165000.0000000132 -4000  0 170000.0000000124 -4000  0 175000.0000000116 -4000  0 180000.0000000109 -4000  0 185000.0000000101 -4000  0 190000.0000000093 -4000  0 195000.0000000085 -4000  0 200000.0000000078 -4000  0 205000.000000007 -4000  0 210000.0000000062 -4000  0 215000.0000000054 -4000  0 220000.0000000047 -4000  0 225000.0000000039 -4000  0 230000.0000000031 -4000  0 235000.0000000024 -4000  0 240000.0000000016 -4000  0 245000.0000000008 -4000  138499.992698711 4754.026372277331 0  137093.2670052012 9536.639699345635 0  135699.8836753657 14323.17697982435 0  134242.0997113028 19090.39455387465 0  132631.3534429766 23807.82160930602 0  130751.3712685147 28423.75111080412 0  128562.4170940472 32902.44582968431 0  126285.2564027428 37336.77035579942 0  123661.3951409534 41572.18842203188 0  120466.1639654971 45392.17900234455 0  116742.7600150611 48701.57094013265 0  112599.2779558244 51459.89351581372 0  108052.7620132346 53498.30186482816 0  103362.6013075687 55186.61489180412 0  98626.9445524631 56744.1075396087 0  93895.10465571457 58313.07723732995 0  89213.61083253716 60025.29196098565 0  84659.98679375931 62049.90630856762 0  80423.72342827682 64664.16689082998 0  77079.46520597988 68320.91799726382 0  75401.03926413733 72984.18687963787 0  75132.31546441223 77953.39118957664 0  75517.79269400188 82922.72841733029 0  75994.12798690467 87884.97931497527 0  76141.03644053877 92865.72190814259 0  75577.6917399208 97812.27627089612 0  74056.71099135675 102551.9930892217 0  71898.80264107142 107043.8044784894 0  69421.09707510214 111369.0872951042 0  66791.23439747586 115604.1050970619 0  64120.91357323291 119813.8417572768 0  61505.46198361652 124057.7414488965 0  59050.55973913459 128395.9995763311 0  56903.24970482702 132893.1998504455 0  55303.81367464051 137609.8368688517 0  54543.69409163466 142530.9149478115 0  54488.96440186739 147512.6695308264 0  54974.77359561732 152472.3067464133 0  55867.62888085351 157375.8602543657 0  57059.2217642535 162216.0105874235 0  58457.1304431001 167000.9860755429 0  59967.68958253603 171751.8163324134 0  61481.85702780542 176501.4740946017 0  63249.74457712872 181161.0445509208 0  65477.30866714627 185617.8308927955 0  68245.7959420751 189759.2433519008 0  71520.4315061924 193514.3385976385 0  75350.61144867241 196685.7937683813 0  79773.17101542671 198974.8606729538 0  84378.90699153654 200882.4207250944 0  88911.60265377768 202954.8336515224 0  93435.45084417483 205047.09581866 0  98032.2666486997 206976.2210864664 0  102616.0836544937 208935.8107130805 0  107113.0495121478 211085.573258506 0  111372.3937621359 213667.5068784722 0  114843.2448044628 217203.7046179156 0  116698.1230832934 221806.0799432901 0  117775.060870244 226673.1998860401 0  119571.7838315423 231305.7208116875 0  122475.2761019627 235353.0279900247 0  125742.3595464658 239117.4724032586 0  129161.5121633181 242745.2442007751 0  132614.792595325 246340.7012191151 0  250000 250000 -8921.902778285936  250000 250000 -19170.47581238532  250000 250000 -30942.99472097832  250000 250000 -44466.06850109496  250000 230769.2307692338 -60000  250000 211538.4615384677 -60000  250000 192307.6923077015 -60000  250000 173076.9230769353 -60000  250000 153846.1538461692 -60000  250000 134615.384615403 -60000  250000 115384.615384597 -60000  250000 96153.84615383085 -60000  250000 76923.07692306468 -60000  250000 57692.30769229849 -60000  250000 38461.53846153233 -60000  250000 19230.76923076616 -60000  250000 0 -44466.06850109696  250000 0 -30942.99472111472  250000 0 -19170.47581244904  250000 0 -8921.90277830635  232227.1661023966 0 -60000  216296.9260375522 0 -60000  202018.2515568125 0 -60000  189219.9167941597 0 -60000  177748.4479527209 0 -60000  167466.2824799582 0 -60000  158250.1197834204 0 -60000  149989.4414908582 0 -60000  142585.1882295191 0 -60000  135948.5681760333 0 -60000  232227.1661023966 250000 -60000  216296.9260375522 250000 -60000  202018.2515568125 250000 -60000  189219.9167941597 250000 -60000  177748.4479527209 250000 -60000  167466.2824799582 250000 -60000  158250.1197834204 250000 -60000  149989.4414908582 250000 -60000  142585.1882295191 250000 -60000  135948.5681760333 250000 -60000  130000 244047.61904762 -60000  130000 238095.23809524 -60000  130000 232142.85714286 -60000  130000 226190.47619048 -60000  130000 220238.0952381 -60000  130000 214285.7142857199 -60000  130000 208333.3333333399 -60000  130000 202380.9523809599 -60000  130000 196428.5714285799 -60000  130000 190476.1904761999 -60000  130000 184523.8095238199 -60000  130000 178571.4285714399 -60000  130000 172619.0476190599 -60000  130000 166666.6666666799 -60000  130000 160714.2857142999 -60000  130000 154761.9047619199 -60000  130000 148809.5238095399 -60000  130000 142857.1428571599 -60000  130000 136904.7619047798 -60000  130000 130952.3809523998 -60000  130000 125000.0000000169 -60000  130000 119047.6190476054 -60000  130000 113095.2380
[...]
<PointData  Vectors="Adjoint"> 
<DataArray  type="Float64"  Name="Adjoint"  NumberOfComponents="3" format="ascii">5.9825450703954576e-14 2.7277690849535420e-14 -1.4043527489283213e-14  4.2249865261123160e-14 5.7339269835703148e-14 1.4360804047640361e-13  0.0000000000000000e+00 -2.0636131854025979e-05 4.6081514660767604e-05  0.0000000000000000e+00 -7.0774257088438981e-05 2.6793422428887686e-04  6.7317363602189844e-10 4.8159468710038029e-10 1.0506428881852903e-10  4.6196241518560174e-09 -3.6077890959041607e-09 5.9978969832958622e-09  0.0000000000000000e+00 2.4430914444324470e-05 4.8377590224995785e-05  0.0000000000000000e+00 -9.0184220999424001e-06 2.8043279858858166e-04  -1.1113560377356744e-03 -8.4056973719927615e-05 1.0433667353635250e-04  -5.6999101102193678e-04 -3.0768524809266483e-04 7.3488070583039425e-05  -1.2177879930366626e-03 -1.3124303586854079e-04 1.1709337659749990e-04  -1.1418449058951542e-03 -3.1752707356527118e-04 8.8721314899431868e-05  -1.7158980339215181e-03 -5.7283216007524246e-05 1.0586042311893763e-04  -1.7797083672134717e-03 -4.1825587409480107e-04 2.0364750030845964e-04  -2.5307666607118718e-03 -1.2919014012916881e-03 2.0084844689812715e-04  -3.7835146755901099e-03 -8.4656214440005802e-04 1.8327622988871401e-04  -3.5233664971490511e-04 -2.4484020237199386e-04 7.8252576576727344e-05  -4.7003610216129789e-03 -1.4657425390572180e-03 2.3946813049126388e-04  -1.4658883217618282e-04 -7.7769069217214351e-05 1.1346242113426581e-04  -1.3022174586757227e-03 -6.2673865615436310e-04 1.7866076582548511e-04  -1.7819066156255943e-04 -9.2136597977291205e-05 8.3632809665637136e-05  -2.4603422936704008e-03 -6.2244637972738378e-04 1.3926108466183766e-04  -4.2275353955457239e-03 -1.6280342716368126e-03 3.2240423276207268e-04  -1.2815804906875824e-03 -6.0305817279282493e-04 1.3706415850282041e-04  -9.7134638616155379e-04 -3.2078746637220372e-04 1.2478095127278126e-04  -5.7511895153972430e-04 -2.2957604981770711e-04 1.0062788788992655e-04  -5.7968703642210834e-04 -2.0512155300352302e-04 9.1781212666061391e-05  -2.2335558002154789e-04 -1.8827597434908043e-04 5.2058000379750514e-05  -4.3860247932320397e-04 -1.3775789260192839e-04 7.7185882318493265e-05  -5.0091123174872117e-04 -1.1070570776496712e-04 9.5019825823060061e-05  -3.0907013315732045e-04 -8.4624124035829156e-05 5.5129721311605728e-05  -2.4397117299033167e-04 -5.9943983461870736e-05 8.0220205741754865e-05  -2.6402810188056646e-04 -4.3999243886198675e-05 5.3794179507258701e-05  -5.2663537846694415e-05 -1.2183555078432650e-04 1.0675159751116436e-05  -5.3803669407800187e-05 -1.2938614385461333e-04 1.1770405250107296e-05  -1.2722176306317407e-04 -7.1138020984082319e-05 2.6485217219184912e-05  -1.1539929421349264e-04 -5.5888093104818185e-05 2.2716471150188431e-05  -1.5867050719884322e-04 -3.6706123359796151e-05 9.9170204779449109e-05  -1.4589806755040000e-04 -1.6478175857589847e-05 4.9646500471534873e-05  -6.3313398465172745e-05 -3.2690986730994113e-05 1.7067958323113364e-05  -7.8988941708158281e-05 -1.5048661607283525e-05 2.7177185915799077e-05  -2.6150772954563147e-05 -2.7814226747200190e-05 8.7145819970039347e-06  -1.1851334629378196e-04 -1.7930863993720785e-05 6.7110578964243612e-05  -7.7569938082087028e-05 -3.8485949131249535e-05 1.5191738590014967e-04  -2.0670057887026431e-05 -1.5765392972634155e-05 1.0158408280888149e-05  -1.8667958351427570e-05 -1.7743439049066515e-05 2.3911648734461043e-06  -1.0642472420285834e-04 -7.5888074808364191e-05 8.8240433448810599e-05  -3.2318786028592809e-10 1.2144316455910240e-10 1.5127464575200036e-10  -1.2013949531124517e-08 4.0397678980906874e-09 2.9663137316448039e-10  -5.1495012141381885e-08 3.0156177616548224e-08 4.9805271052936200e-09  -1.2043430177452884e-07 9.3375113651666797e-08 -3.7660286105195160e-09  -2.3596421092578179e-07 2.0409663589401827e-07 -5.3726855280543478e-08  -4.2421089190881539e-07 3.8880986235622418e-07 -3.9611027579454983e-08  -6.9244565200155922e-07 6.4642173278404728e-07 -1.2034222932706967e-07  -1.0405747816455672e-06 1.0355564715814589e-06 -1.4548068611160869e-07  -1.4327271296671773e-06 1.4073391106079762e-06 -1.9590275542464879e-07  -1.9887130284964493e-06 1.7849067378926319e-06 -2.3075974802629902e-07  -2.7080916021660335e-06 2.0209136639072359e-06 -1.6298298907473929e-07  -3.6139394003426477e-06 1.9420372765729474e-06 1.4299356039182914e-07  -4.9097315314560119e-06 1.5302567070602284e-06 6.7476323373392950e-07  -6.5184250654518047e-06 5.1267963130168814e-07 1.5742956181960751e-06  -8.6361424607878868e-06 -1.6602881987352462e-06 3.0863507460338318e-06  -1.1486771872511138e-05 -4.7786219877888271e-06 5.0782386244822526e-06  -1.5203836207694454e-05 -8.3351358997865471e-06 7.7861390918028741e-06  -1.9700482415187710e-05 -1.2982274449094477e-05 1.0934858617796341e-05  -2.5099786142136369e-05 -1.8110645950590283e-05 1.4604410717777704e-05  -3.1672000856024796e-05 -2.3953718164355474e-05 1.9224448169593113e-05  -3.9195009360449434e-05 -3.0165783017309469e-05 2.4308370171938548e-05  -4.7838358881628156e-05 -3.6184600705469665e-05 2.9990727363287662e-05  -5.7238545833638511e-05 -4.2237075471192239e-05 3.6543278901221907e-05  -6.7346427882623364e-05 -4.8395830489780414e-05 4.3788840441354418e-05  -7.7180856416759222e-05 -5.4259268976967574e-05 5.2428833525573724e-05  -8.7286357367700906e-05 -6.0602287855096530e-05 6.2196505095316211e-05  -9.7639981231153734e-05 -6.7751040669875734e-05 7.3907337703227330e-05  0.0000000000000000e+00 -6.6355226100651843e-05 2.5831044288934037e-04  0.0000000000000000e+00 -6.2349512232592167e-05 2.4918224002403995e-04  0.0000000000000000e+00 -5.8576531494282535e-05 2.4110310592596128e-04  0.0000000000000000e+00 -5.5748646120316845e-05 2.3332907560173546e-04  0.0000000000000000e+00 -5.2782325420397772e-05 2.2555084749087691e-04  0.0000000000000000e+00 -4.9816277527362100e-05 2.1854015585060226e-04  0.0000000000000000e+00 -4.7626503912901472e-05 2.1135048052480006e-04  0.0000000000000000e+00 -4.5465946030656765e-05 2.0380964015776439e-04  0.0000000000000000e+00 -4.3668440418743327e-05 1.9573737671631586e-04  0.0000000000000000e+00 -4.1936471032251452e-05 1.8734284940362522e-04  0.0000000000000000e+00 -4.0008126828561258e-05 1.7866732265670650e-04  0.0000000000000000e+00 -3.8789464760847860e-05 1.6958431405468283e-04  0.0000000000000000e+00 -3.7435360511348269e-05 1.5941790680946855e-04  0.0000000000000000e+00 -3.6267215780504762e-05 1.4903519532668804e-04  0.0000000000000000e+00 -3.4779740532949442e-05 1.3872525543400340e-04  0.0000000000000000e+00 -3.3164975784352120e-05 1.2895692576751484e-04  0.0000000000000000e+00 -3.1858664241807641e-05 1.1803326020787853e-04  0.0000000000000000e+00 -3.0227251260621965e-05 1.0787386543769883e-04  0.0000000000000000e+00 -2.8822340493810596e-05 9.7934664840521274e-05  0.0000000000000000e+00 -2.7390163830519772e-05 8.8233738572058432e-05  0.0000000000000000e+00 -2.5946615287868922e-05 7.9035156980832445e-05  0.0000000000000000e+00 -2.4494994110246924e-05 7.0029672246153102e-05  0.0000000000000000e+00 -2.3223602553043005e-05 6.1592146618047689e-05  0.0000000000000000e+00 -2.1943653885844017e-05 5.3577000804473051e-05  -1.7297804344032447e-05 -1.7208089288437807e-05 1.0097346518725658e-06  -1.5812915478273979e-05 -1.6568127939150886e-05 -1.0488222651702279e-07  -1.4417023949911706e-05 -1.5827858377917576e-05 -9.6477570025579845e-07  -1.3017696388538285e-05 -1.5000465289962186e-05 -1.4926259476613751e-06  -1.1703263282568432e-05 -1.4096660606417090e-05 -1.8679007667220659e-06  -1.0432782250558956e-05 -1.3091930941454622e-05 -2.0319677753963376e-06  -9.2623338355418845e-06 -1.1977443281444280e-05 -1.9640548378947446e-06  -8.2362666606718665e-06 -1.0820911396524746e-05 -1.8722978834435404e-06  -7.2741838371437570e-06 -9.5546538660648831e-06 -1.6946443397987384e-06  -6.4532081545287485e-06 -8.3535620610966984e-06 -1.4333650440056867e-06  -5.5617177949836310e-06 -7.0640189849717203e-06 -1.1826725363155787e-06  -4.7715834785621433e-06 -5.8840541716623145e-06 -8.9061322185097333e-07  -4.0899249244658417e-06 -4.8015600316050173e-06 -7.4177167958563859e-07  -3.3920773606192676e-06 -3.8172919652808899e-06 -6.2745434811508141e-07  -2.7569845421598449e-06 -2.9963167416625370e-06 -5.0402403445114394e-07  -2.1366986389049545e-06 -2.1963790036650056e-06 -3.5028507351585076e-07  -1.6363905691874822e-06 -1.5925934218591224e-06 -2.7036206405485795e-07  -1.2068531870037500e-06 -1.1459926804660026e-06 -1.8810756691574910e-07  -8.3809100611227735e-07 -7.4839317834001716e-07 -1.0870479886615060e-07  -5.9501303165655013e-07 -5.0627038892438905e-07 -6.0871091250379963e-08  -4.0970014019324443e-07 -3.5274418050518733e-07 -7.8121724069305792e-08  -2.6239955243715221e-07 -2.1838624283461980e-07 -4.8448915543761690e-08  -1.4950056649833796e-07 -1.0574004302066520e-07 -1.4767754992633164e-08  -6.7071706187696491e-08 -4.7963741207619752e-08 -5.1726233580008326e-09  -3.5432427032221983e-08 -2.3518470202907054e-08 -3.2674647447270612e-09  -1.0590253130485615e-08 -5.5884437533786268e-09 -3.9429026126830891e-10  -2.6199643098497320e-09 -8.2995850213762716e-10 1.7772838917458302e-10  -2.5325428543502596e-10 -1.7685150500019570e-10 3.0861292921380186e-11  7.6926468658483148e-14 3.8333927872840878e-14 -1.5454353807085686e-14  3.1643177446957672e-14 8.3588151252668635e-15 -3.8690843898961433e-17  5.6609781954513680e-14 1.5188664345831677e-14 -3.7603331146544474e-14  9.8852340307488311e-14 -2.1266306011889377e-14 3.4298065236901377e-14  -6.1224508841306662e-14 -1.8492018713481950e-14 -6.8617138086420608e-14  1.7910345038848341e-13 2.3568093005014868e-14 2.7902340533760495e-13  1.2472842471055544e-13 -8.2196624303647197e-16 2.6390092774884466e-13  3.7745072566682464e-13 -1.8884982073498045e-13 7.8170064612526686e-13  9.3455333516814211e-13 4.5879354823175406e-13 -2.4857059997287224e-13  2.0918335339366630e-12 1.4175431892232923e-12 -1.3675132352826692e-12  2.5593096125702656e-12 1.1293501255493775e-12 4.0332229277291905e-15  7.2167014145881085e-13 -8.1169966710773475e-13 1.5351032198153551e-12  1.1284592981500590e-13 -1.9333998348575916e-13 -9.5772766995600335e-13  2.3929223991411374e-12 -7.5663818181617891e-14 6.2881016203307492e-12  1.4188262918650537e-12 1.1267140945581172e-12 -3.6841518612781856e-12  3.4202619607595465e-11 6.2959269684169854e-12 1.2151110354228676e-11  2.3515761195169571e-11 4.5515482759490300e-12 -4.8349194797248216e-12  -3.8775350259813391e-12 -1.1047404013903630e-12 -1.2157630906094695e-12  2.6030228281486172e-11 -8.1392944395867653e-13 9.2721727572561039e-12  -1.0036194097848423e-11 -4.4425733375507117e-12 -9.7318456624154082e-12  -8.3523519718385678e-11 -3.7262131392832394e-11 -4.3780102682383516e-11  7.8993765469118604e-11 6.3058797979732799e-12 -7.1831318686725096e-11  -9.0304105376844112e-12 -1.1189056683018151e-10 2.2355064314694324e-10  -2.2719046766180381e-11 -1.5015827273783695e-11 3.8348579046234235e-12  -7.9548072999435221e-11 2.5120116876050904e-11 -1.5957369524684139e-10  1.8539759247250336e-10 -5.1224743422689936e-11 -5.9199942668563852e-10  9.8058147374100709e-11 -2.6973049635500043e-12 -5.8522924798813323e-11  8.2137891432623103e-11 -4.9068296569716585e-12 1.3282411399997675e-11  2.0347133874718385e-10 -1.8749351293031960e-11 4.4361152746894315e-11  2.4222877397876320e-10 -3.6869798501236946e-11 9.7998688716759138e-11  9.9991490894342149e-11 -1.9442616462875159e-11 2.8966579400013494e-11  4.6320954134792528e-11 -1.1497237212608664e-11 -1.8788982166939831e-11  7.1380334600867877e-11 -1.3873465027318367e-11 -3.4839140496522737e-11  1.9743924541651899e-11 -6.5747950075713596e-12 -7.0920361459128561e-12  1.9377325549277158e-11 -1.4304742177232866e-12 -1.8345701256054330e-11  5.0584696796763632e-12 4.3209025062560953e-13 -6.4866495929820349e-13  1.9355421548967316e-12 1.6265407302655505e-12 3.5891210402721760e-12  7.4862308439969512e-13 1.7788331265714772e-13 8.1749864662512009e-13  7.3491896172403567e-12 -2.2793528848214442e-12 3.6931088052302763e-12  9.5393943417070663e-13 -4.9012666183137134e-13 -2.5972770939066992e-12  3.2009508795571522e-12 -1.0650031766315407e-12 7.7171948509688974e-13  1.1308636909214137e-12 -5.2211800459295615e-13 9.2020097032227083e-13  2.2695817681093932e-12 -3.0826970272630514e-13 -6.1211794095730004e-14  2.9120339983764007e-12 -1.1938470322801045e-12 1.8767249183711648e-13  1.8035866494695761e-13 1.8566993170636299e-13 -1.0789130369318768e-12  3.1342356057947249e-14 -5.4363895997412114e-14 3.5407859547693970e-13  1.6507609302133520e-13 2.1638212914675111e-15 -1.9618105132582940e-14  3.0605771164902435e-14 3.9184018317680814e-15 -7.5777914717600679e-14  2.2931094841394850e-14 1.8451774936942405e-15 5.4302288271878019e-16  -1.8169445388792259e-05 -1.7273846239691242e-05 3.9559517656303096e-06  -1.7985829660650817e-05 -1.6821823780805567e-05 5.3671466215511163e-06  -1.8054836716758887e-05 -1.6443563488066264e-05 6.6453850889308198e-06  -1.8390817195205245e-05 -1.6143545716088479e-05 7.7755116747048586e-06  -1.8791036030644068e-05 -1.5715051416960331e-05 8.7070149181948971e-06  -1.9380643359369526e-05 -1.5548403351687419e-05 9.2487750531757292e-06  -1.9988151341481731e-05 -1.5603064263886340e-05 9.5788370068328302e-06  -2.0634584338812366e-05 -1.5534208484807039e-05 9.6810718059458051e-06  -2.0845628798872198e-05 -1.5310094329357728e-05 9.7332083227443426e-06  -2.0324232898645191e-05 -1.5325660864656960e-05 9.3793609500923939e-06  -1.9443293682427881e-05 -1.5743317643925860e-05 8.6623770279787119e-06  -1.8133356770892889e-05 -1.6732500181693374e-05 7.9309278341583593e-06  -1.6707261959639840e-05 -1.8120093958651914e-05 7.0058714771588736e-06  -1.4984943158813548e-05 -1.9783605305895746e-05 6.1513709945638356e-06  -1.3626243964347276e-05 -2.1945100958979794e-05 5.5879168441150110e-06  -1.2495253977415899e-05 -2.4199706539190150e-05 4.8504826751104907e-06  -1.1546293536899004e-05 -2.7034309075023173e-05 4.5377245008813277e-06  -1.1381741155538743e-05 -3.0669136167619803e-05 4.2657027382650977e-06  -1.1862499237351381e-05 -3.5081508918911982e-05 4.2220285305460511e-06  -1.4605687730842596e-05 -4.3015204014795794e-05 4.9462492714610424e-06  -1.9447446210158045e-05 -5.4361719231463032e-05 5.1987827738322338e-06  -3.0369465492087533e-05 -7.2405421365033260e-05 4.7207215613594809e-06  -4.9939775807534585e-05 -9.6516028244178950e-05 7.2513362842290600e-06  -7.2364599915422718e-05 -1.2236887712338795e-04 1.5215878724538121e-05  -9.5595652057508068e-05 -1.4834964991301955e-04 2.5343852263450816e-05  -1.4888766421536058e-04 -1.8147379116319906e-04 3.4175116141959870e-05  -2.3974531514923267e-04 -2.1733342960643734e-04 5.2863933339052900e-05  -3.9391159036494426e-04 -2.9113450847327523e-04 6.8731987454923374e-05  -6.4683736562636104e-04 -4.3619538521497326e-04 7.9361568518105085e-05  -1.4941137339759358e-03 -9.3317702997070321e-04 6.0190748642901298e-05  -2.5324153655816514e-03 -1.4694329482728664e-03 4.5925124054656899e-05  -2.7589616319530774e-03 -1.1159207144529821e-03 6.6608915122922166e-05  -2.6685535879707677e-03 -7.8977865832883913e-04 -2.0831297376594887e-05  -3.1118951673635995e-03 -6.9290027520743809e-04 -9.8688753762621412e-05  -3.0575805882358978e-03 -3.7183084700469503e-04 8.3851097956861068e-05  -1.7664717965090444e-03 -2.3613081874772315e-05 7.3420782183067690e-05  -1.0908169725156206e-03 7.8604160777890348e-06 5.4661586340723049e-05  -1.0861948428355071e-03 3.2774956167022317e-05 5.2060241588511213e-05  -1.2518634218500330e-03 1.0483849512237939e-04 5.8786265642092198e-06  -1.0833865799500827e-03 2.5411528829326851e-04 1.7011970546051499e-05  -9.0725712119584672e-04 1.7033318186866298e-04 7.2702125347881441e-06  -6.8670426832309660e-04 1.8731183802229260e-04 2.1880396990939986e-05  -4.8878860941948361e-04 1.6233009206589289e-04 2.4346865078823571e-05  -3.1422910054132214e-04 1.0442935267474977e-04 3.0553516365768697e-05  -1.9872542810947982e-04 5.3225069523536626e-05 2.2326359970389426e-05  -1.4267394324274810e-04 2.5211340966064454e-05 2.0878253370302470e-05  -1.1826310852486692e-04 -1.3576279377785679e-07 1.9822450045486708e-05  -9.8103705455400902e-05 -2.6363230685694795e-05 1.7885954576495186e-05  -9.5775835296796978e-05 -4.7723159383702827e-05 1.8115887580310399e-05  -9.8113463169711217e-05 -6.7358613382203483e-05 1.7515223260807043e-05  -9.9777495168720619e-05 -7.7890186591892790e-05 1.8357673298844664e-05  -1.0109671656246336e-04 -8.6416268103938241e-05 2.0564223673082641e-05  -1.0538866467049718e-04 -9.5056830834259971e-05 2.4782633394166967e-05  -1.0967804899676817e-04 -1.0258712913308491e-04 2.7124724584644292e-05  -1.1335298530275987e-04 -1.0205925123317484e-04 2.9711449856644178e-05  -1.1517507647465256e-04 -9.6583006383961089e-05 3.1950462945911868e-05  -1.1298096657177572e-04 -8.7519577663230754e-05 3.2417673384158945e-05  -1.0646397884979576e-04 -7.8208521911241717e-05 3.2952346848368087e-05  -1.0036269923205251e-04 -7.0629561568484969e-05 3.4191601281274721e-05  -9.8700894423313937e-05 -6.6553983267310114e-05 3.7079117836275549e-05  -1.0009842430362605e-04 -6.5533005954832626e-05 4.2973277418197379e-05  -1.0322417493583173e-04 -6.6153567108190339e-05 5.0746560659675694e-05  -1.0439885956017611e-04 -6.8198934369399601e-05 6.1521575280976010e-05  -1.0631373026063080e-04 -7.1803595376307788e-05 7.3683699254067198e-05  0.0000000000000000e+00 -6.1900655500688953e-05 2.7170545735827854e-04  0.0000000000000000e+00 -5.0745205122061375e-05 2.7501706068240285e-04  0.0000000000000000e+00 -3.8110689139309168e-05 2.7703872816549449e-04  0.0000000000000000e+00 -2.4906027071005555e-05 2.7902169667822283e-04  0.0000000000000000e+00 -9.3198260012046600e-06 2.6166238106095023e-04  0.0000000000000000e+00 -7.8608367950560964e-06 2.4572054907011321e-04  0.0000000000000000e+00 -4.8781981749601166e-06 2.3169135748810622e-04  0.0000000000000000e+00 5.5526570168299368e-07 2.1730570161044441e-04  0.0000000000000000e+00 6.9057685666655787e-06 2.0129777232303739e-04  0.0000000000000000e+00 1.3330520129240206e-05 1.8528247003601024e-04  0.0000000000000000e+00 1.9452842341095969e-05 1.6394968569844427e-04  0.0000000000000000e+00 2.3578495778891462e-05 1.4251350774780356e-04  0.0000000000000000e+00 2.5869199683794486e-05 1.2062257206492563e-04  0.0000000000000000e+00 2.6581717242624154e-05 1.0011776580057813e-04  0.0000000000000000e+00 2.6202748953499751e-05 8.0394554054011847e-05  0.0000000000000000e+00 2.5351783359269001e-05 6.3548655620997727e-05  0.0000000000000000e+00 1.2431437822379314e-05 4.8477528215027236e-05  0.0000000000000000e+00 1.8769700428116125e-06 4.8357336761586111e-05  0.0000000000000000e+00 -6.5184224967685566e-06 4.7943465854266185e-05  0.0000000000000000e+00 -1.4013834362861540e-05 4.7094591871241085e-05  3.4637245844718848e-06 2.4490873957434733e-05 4.6154240135753281e-05  6.7485230259539749e-06 2.3606065341343177e-05 4.1088775405481377e-05  9.0582625921114263e-06 2.1667028050710701e-05 3.4700280212778873e-05  1.0601007845784897e-05 1.9519482057382009e-05 2.7957984649372485e-05  1.1267050980351819e-05 1.7011627865180210e-05 2.1160553093910695e-05  1.1289801172503583e-05 1.4400285868554349e-05 1.4924198118014275e-05  1.0345704832601202e-05 1.1841698940298886e-05 9.4444254823636173e-06  8.9147624060896677e-06 9.2961718638807442e-06 5.6426698719003840e-06  6.9709572325432722e-06 6.6603321145685927e-06 2.2616615616652335e-06  4.5101919334141067e-06 3.9607446943263209e-06 5.6147460753156913e-07  2.2779820758630791e-06 -1.0583597576636479e-05 2.7427807758549573e-04  5.2359612801494383e-06 -1.2696727696955653e-05 2.6095518619510756e-04  8.5452169540006194e-06 -1.3733024799351922e-05 2.4199210166880728e-04  1.3395278042613105e-05 -1.6794961245891182e-05 2.1705545738385682e-04  1.7062622322994173e-05 -1.7725485173926009e-05 1.9027438785527179e-04  2.1918788750144844e-05 -1.8944898047463800e-05 1.6003811067764989e-04  2.5336434232222702e-05 -1.9011836943743549e-05 1.2901516196546598e-04  2.6239169450437162e-05 -1.7676636569508638e-05 9.7496155202986953e-05  2.4157684896697705e-05 -1.5931724281222044e-05 6.70873375225