<?xml version="1.0"?>
<VTKFile type="UnstructuredGrid"  version="0.1"  >
<UnstructuredGrid>
<Piece  NumberOfPoints="8385" NumberOfCells="35823">
<Points>
<DataArray  type="Float64"  NumberOfComponents="3"  format="ascii">0 0 -4000  0 250000 -4000  250000 0 0  250000 250000 0  130000 0 -60000  130000 250000 -60000  250000 0 -60000  250000 250000 -60000  72147.7 166878.6 0  86225.3 177671.7 0  72082.2 161278 0  80407.60000000001 166683.7 0  66765.10000000001 151053.8 0  70533.5 147695.4 0  88829.10000000001 164696.8 0  62768.1 132621.8 0  114956.1 180662.6 0  63924.4 130258.4 0  156213.5 216508.7 0  94617.8 155302.3 0  144307.5 195630.5 0  87231.39999999999 141931.8 0  68256.5 121278.3 0  69835.5 115711.4 0  95984.2 132464.1 0  116918.1 151520.9 0  96139.8 122416.1 0  78677.39999999999 102260.8 0  93451.5 115391.6 0  111847.4 131476.2 0  107207 116320.3 0  142564.4 147908.4 0  121370.1 121838.1 0  82154.39999999999 83011.2 0  84152.3 84289.39999999999 0  99259 96094.39999999999 0  106151.5 94923 0  159682.5 139591.9 0  136050.5 110604.8 0  111591.5 84279.10000000001 0  126001.6 88238.2 0  105758.7 68122.8 0  151826.4 109709.5 0  197157.2 140577 0  129859.4 33265.4 0  140000 0 0  136000 250000 0  4857.142857142332 250000 -3857.142857142872  9714.285714284615 250000 -3714.285714285747  14571.42857143168 250000 -3571.42857142848  19428.57142857481 250000 -3428.571428571329  24285.71428571539 250000 -3285.714285714253  29142.85714285597 250000 -3142.857142857177  33999.99999999657 250000 -3000.000000000101  38857.14285713715 250000 -2857.142857143025  43714.28571427773 250000 -2714.285714285949  48571.42857141832 250000 -2571.428571428873  53428.57142855891 250000 -2428.571428571797  58285.71428569948 250000 -2285.714285714721  63142.85714284007 250000 -2142.857142857645  67999.99999998066 250000 -2000.000000000569  72857.14285712125 250000 -1857.142857143493  77714.28571426184 250000 -1714.285714286416  82571.42857140242 250000 -1571.428571429341  87428.571428543 250000 -1428.571428572265  92285.71428568359 250000 -1285.714285715189  97142.85714282417 250000 -1142.857142858113  101999.9999999648 250000 -1000.000000001036  106857.1428571053 250000 -857.1428571439606  111714.2857142459 250000 -714.2857142868847  116571.4285713865 250000 -571.4285714298085  121428.5714285271 250000 -428.5714285727327  126285.7142856677 250000 -285.7142857156564  131142.8571428107 250000 -142.8571428585083  250000 240000.0000000016 0  250000 230000.0000000032 0  250000 220000.0000000048 0  250000 210000.0000000064 0  250000 200000.0000000079 0  250000 190000.0000000095 0  250000 180000.0000000111 0  250000 170000.0000000127 0  250000 160000.0000000143 0  250000 150000.0000000159 0  250000 140000.0000000175 0  250000 130000.0000000191 0  250000 119999.9999999916 0  250000 109999.9999999825 0  250000 99999.99999998408 0  250000 89999.99999998568 0  250000 79999.99999998725 0  250000 69999.99999998885 0  250000 59999.99999999045 0  250000 49999.99999999205 0  250000 39999.99999999366 0  250000 29999.99999999526 0  250000 19999.9999999968 0  250000 9999.999999998399 0  135172.4137931034 0 -137.9310344827583  130344.8275862069 0 -275.8620689655166  125517.2413793104 0 -413.7931034482749  120689.6551724138 0 -551.7241379310333  115862.0689655173 0 -689.6551724137912  111034.4827586208 0 -827.5862068965494  106206.8965517242 0 -965.5172413793075  101379.3103448277 0 -1103.448275862066  96551.72413793117 0 -1241.379310344824  91724.13793103464 0 -1379.310344827582  86896.5517241381 0 -1517.24137931034  82068.96551724157 0 -1655.172413793098  77241.37931034504 0 -1793.103448275856  72413.79310344851 0 -1931.034482758614  67586.20689655196 0 -2068.965517241373  62758.62068965542 0 -2206.896551724131  57931.03448275886 0 -2344.827586206889  53103.44827586231 0 -2482.758620689649  48275.86206896573 0 -2620.689655172408  43448.27586206916 0 -2758.620689655167  38620.68965517257 0 -2896.551724137927  33793.103448276 0 -3034.482758620686  28965.51724137944 0 -3172.413793103445  24137.93103448287 0 -3310.344827586204  19310.34482758629 0 -3448.275862068963  14482.7586206897 0 -3586.206896551723  9655.172413793145 0 -3724.137931034482  4827.586206896551 0 -3862.068965517241  0 4999.999999999225 -4000  0 9999.999999998096 -4000  0 14999.99999999756 -4000  0 19999.99999999726 -4000  0 24999.99999999649 -4000  0 29999.99999999545 -4000  0 34999.99999999351 -4000  0 39999.99999999275 -4000  0 44999.99999999197 -4000  0 49999.9999999912 -4000  0 54999.99999999042 -4000  0 59999.99999998965 -4000  0 64999.99999998888 -4000  0 69999.99999998808 -4000  0 74999.99999998731 -4000  0 79999.99999998655 -4000  0 84999.99999998577 -4000  0 89999.99999998501 -4000  0 94999.99999998423 -4000  0 99999.99999998347 -4000  0 104999.9999999827 -4000  0 109999.9999999819 -4000  0 114999.9999999811 -4000  0 119999.9999999804 -4000  0 124999.9999999824 -4000  0 130000.0000000079 -4000  0 135000.0000000178 -4000  0 140000.000000017 -4000  0 145000.0000000163 -4000  0 150000.0000000155 -4000  0 155000.0000000147 -4000  0 160000.000000014 -4000  0 165000.0000000132 -4000  0 170000.0000000124 -4000  0 175000.0000000116 -4000  0 180000.0000000109 -4000  0 185000.0000000101 -4000  0 190000.0000000093 -4000  0 195000.0000000085 -4000  0 200000.0000000078 -4000  0 205000.000000007 -4000  0 210000.0000000062 -4000  0 215000.0000000054 -4000  0 220000.0000000047 -4000  0 225000.0000000039 -4000  0 230000.0000000031 -4000  0 235000.0000000024 -4000  0 240000.0000000016 -4000  0 245000.0000000008 -4000  138499.992698711 4754.026372277331 0  137093.2670052012 9536.639699345635 0  135699.8836753657 14323.17697982435 0  134242.0997113028 19090.39455387465 0  132631.3534429766 23807.82160930602 0  130751.3712685147 28423.75111080412 0  128562.4170940472 32902.44582968431 0  126285.2564027428 37336.77035579942 0  123661.3951409534 41572.18842203188 0  120466.1639654971 45392.17900234455 0  116742.7600150611 48701.57094013265 0  112599.2779558244 51459.89351581372 0  108052.7620132346 53498.30186482816 0  103362.6013075687 55186.61489180412 0  98626.9445524631 56744.1075396087 0  93895.10465571457 58313.07723732995 0  89213.61083253716 60025.29196098565 0  84659.98679375931 62049.90630856762 0  80423.72342827682 64664.16689082998 0  77079.46520597988 68320.91799726382 0  75401.03926413733 72984.18687963787 0  75132.31546441223 77953.39118957664 0  75517.79269400188 82922.72841733029 0  75994.12798690467 87884.97931497527 0  76141.03644053877 92865.72190814259 0  75577.6917399208 97812.27627089612 0  74056.71099135675 102551.9930892217 0  71898.80264107142 107043.8044784894 0  69421.09707510214 111369.0872951042 0  66791.23439747586 115604.1050970619 0  64120.91357323291 119813.8417572768 0  61505.46198361652 124057.7414488965 0  59050.55973913459 128395.9995763311 0  56903.24970482702 132893.1998504455 0  55303.81367464051 137609.8368688517 0  54543.69409163466 142530.9149478115 0  54488.96440186739 147512.6695308264 0  54974.77359561732 152472.3067464133 0  55867.62888085351 157375.8602543657 0  57059.2217642535 162216.0105874235 0  58457.1304431001 167000.9860755429 0  59967.68958253603 171751.8163324134 0  61481.85702780542 176501.4740946017 0  63249.74457712872 181161.0445509208 0  65477.30866714627 185617.8308927955 0  68245.7959420751 189759.2433519008 0  71520.4315061924 193514.3385976385 0  75350.61144867241 196685.7937683813 0  79773.17101542671 198974.8606729538 0  84378.90699153654 200882.4207250944 0  88911.60265377768 202954.8336515224 0  93435.45084417483 205047.09581866 0  98032.2666486997 206976.2210864664 0  102616.0836544937 208935.8107130805 0  107113.0495121478 211085.573258506 0  111372.3937621359 213667.5068784722 0  114843.2448044628 217203.7046179156 0  116698.1230832934 221806.0799432901 0  117775.060870244 226673.1998860401 0  119571.7838315423 231305.7208116875 0  122475.2761019627 235353.0279900247 0  125742.3595464658 239117.4724032586 0  129161.5121633181 242745.2442007751 0  132614.792595325 246340.7012191151 0  250000 250000 -8921.902778285936  250000 250000 -19170.47581238532  250000 250000 -30942.99472097832  250000 250000 -44466.06850109496  250000 230769.2307692338 -60000  250000 211538.4615384677 -60000  250000 192307.6923077015 -60000  250000 173076.9230769353 -60000  250000 153846.1538461692 -60000  250000 134615.384615403 -60000  250000 115384.615384597 -60000  250000 96153.84615383085 -60000  250000 76923.07692306468 -60000  250000 57692.30769229849 -60000  250000 38461.53846153233 -60000  250000 19230.76923076616 -60000  250000 0 -44466.06850109696  250000 0 -30942.99472111472  250000 0 -19170.47581244904  250000 0 -8921.90277830635  232227.1661023966 0 -60000  216296.9260375522 0 -60000  202018.2515568125 0 -60000  189219.9167941597 0 -60000  177748.4479527209 0 -60000  167466.2824799582 0 -60000  158250.1197834204 0 -60000  149989.4414908582 0 -60000  142585.1882295191 0 -60000  135948.5681760333 0 -60000  232227.1661023966 250000 -60000  216296.9260375522 250000 -60000  202018.2515568125 250000 -60000  189219.9167941597 250000 -60000  177748.4479527209 250000 -60000  167466.2824799582 250000 -60000  158250.1197834204 250000 -60000  149989.4414908582 250000 -60000  142585.1882295191 250000 -60000  135948.5681760333 250000 -60000  130000 244047.61904762 -60000  130000 238095.23809524 -60000  130000 232142.85714286 -60000  130000 226190.47619048 -60000  130000 220238.0952381 -60000  130000 214285.7142857199 -60000  130000 208333.3333333399 -60000  130000 202380.9523809599 -60000  130000 196428.5714285799 -60000  130000 190476.1904761999 -60000  130000 184523.8095238199 -60000  130000 178571.4285714399 -60000  130000 172619.0476190599 -60000  130000 166666.6666666799 -60000  130000 160714.2857142999 -60000  130000 154761.9047619199 -60000  130000 148809.5238095399 -60000  130000 142857.1428571599 -60000  130000 136904.7619047798 -60000  130000 130952.3809523998 -60000  130000 125000.0000000169 -60000  130000 119047.6190476054 -60000  130000 113095.2380
[...]
<PointData  Vectors="f_43"> 
<DataArray  type="Float64"  Name="f_43"  NumberOfComponents="3" format="ascii">1.2749764503334900e-03 2.9267441493325739e-03 1.0072138344856723e-03  1.2908932117941981e-02 -5.3546165552883565e-03 -1.2024244654390182e-03  7.3709257529201255e-04 2.6212718515490254e-03 -4.4863855956148264e-03  -2.4223672005323853e-03 1.5789695025434267e-03 -1.9464834878142885e-03  -1.3048760217005248e-03 7.2627020197017637e-05 -2.3674459387627010e-03  1.6018342831665587e-03 3.8423344258910837e-04 3.5085457154990294e-04  1.4113710340113031e-03 1.6474170139529195e-03 -6.3874755707250342e-03  3.4184461647024304e-03 2.4784966883243799e-03 -2.0390429514826579e-03  1.0391585182998010e-03 1.0374885700968387e-03 1.0312930671496500e-03  1.9952544386979097e-03 4.8614725059704044e-04 2.6169921490759814e-03  7.8978261752849941e-04 4.8129401580976886e-04 1.5443614674747331e-05  1.9027437393641924e-03 6.3861844529572681e-04 8.9964466835713418e-04  5.9896133926783546e-04 9.9410380232013533e-04 2.3000831125029432e-03  2.7773371781915932e-04 8.5875575599990656e-04 1.8292165328927051e-03  1.0548888777799474e-03 3.0647958559663208e-06 1.8546504779155090e-03  -8.4117741034030376e-04 7.3869403969581925e-04 7.7375319126609906e-04  2.5897610333684316e-03 -1.0309719452719509e-03 2.3668754199924306e-03  -8.4951908287405980e-04 4.4847073332305654e-04 6.8049657480886256e-04  2.8566752199270756e-03 -7.3237747302203309e-04 4.9767267194861795e-04  5.5291774077602417e-04 7.5618473924967907e-04 1.1285547208276265e-03  1.7441042124193443e-03 -1.4943258369560887e-04 -7.9426464021253016e-04  4.6393390285133225e-04 3.5251476003031424e-04 3.1758853862991313e-04  6.7263764593979841e-04 3.4256388000371692e-04 1.5380572985133675e-03  9.0229547266777136e-04 1.1316693369795419e-04 1.7191184660997096e-03  6.3019209492026925e-04 2.0048711633688956e-04 -3.2811862732471270e-04  1.8576547684889247e-03 -6.3529295184633252e-04 1.9666678904689295e-04  1.1573706133290317e-03 1.4903269412340780e-03 -5.5183181914849580e-04  1.4028834674313603e-03 1.0037202935900813e-03 1.2042318139085866e-03  1.3512267365412168e-03 1.2957732292095297e-03 -3.8714681632431700e-04  1.2387826355278072e-03 5.2706064506844613e-04 -2.8891277833065763e-04  1.3650199463813323e-03 8.0470634945279697e-04 -8.1521217743614352e-04  2.0843968802143793e-03 -2.3827595489492599e-04 4.1388394931766802e-04  9.2042801723911166e-04 2.6687344258885743e-04 -5.0872644837355945e-04  1.8904064178041581e-03 2.5402391350027131e-03 -3.9687740609460224e-04  1.8310351598062552e-03 2.3723274877041540e-03 -2.3674729590572442e-04  9.3484397575601351e-04 1.2361999641109227e-03 -1.4921008587862989e-03  1.5506511762669517e-03 1.8356768189836282e-03 -1.6409708035116193e-03  2.5153285181994116e-03 -6.4922705440043180e-04 -5.4067746549134556e-07  1.6457565094615493e-03 1.0376203127091942e-03 -1.1550693287378955e-03  1.1806284717484348e-03 2.0773992953368407e-03 -1.5554967533699640e-03  1.9710922025875182e-03 2.0849377562413350e-03 -1.9637780751501493e-03  6.2380309587863969e-04 1.2307297617748874e-03 -2.5305923290290977e-03  1.8564343555326488e-03 2.2570195970642585e-04 -1.9195175693933564e-03  2.4841636443632912e-03 -1.1739160399980852e-03 9.9116326822837396e-04  -9.8649395094041904e-04 1.0084200820258619e-03 -1.4516099733890022e-03  -7.2141722226175004e-04 3.1093119952395353e-03 -2.4952475777344717e-03  2.8740961369967837e-03 -1.6217947524999065e-03 1.5189023781463319e-03  1.1218688186560730e-02 -4.9356033873007446e-03 -9.5404127107694527e-04  1.0729458488209696e-02 -5.3402718875347798e-03 -2.3378271451705108e-04  1.0387678995440805e-02 -2.9126150356903156e-03 2.4148044683917685e-04  1.0168623866414171e-02 -2.3191311910450655e-03 3.1057693343098769e-04  1.0743703924182738e-02 -3.4176560757739100e-03 -6.7633733425598677e-05  1.1476752429181284e-02 -3.2113549316971461e-03 -4.6708835677252584e-05  1.1497092517291328e-02 -2.3551728392399575e-03 7.4982959555441582e-04  1.0530324605115793e-02 -1.8797369122521043e-03 1.0794850700148997e-03  9.4445579075995625e-03 -9.6675629659459723e-04 1.8927408014232352e-03  8.7215958963967211e-03 -1.0990714194746591e-03 1.2955462483777607e-03  8.3548462962569469e-03 -1.2694989433002597e-03 8.8027264891860513e-04  7.7081370142401909e-03 -6.6820893386250371e-04 1.6161036191987073e-03  6.5229864739754584e-03 -1.2242502872911929e-03 2.2990133445958392e-03  6.5518420054899223e-03 -1.8114125143391759e-03 1.3682339176953398e-03  5.9080974170923478e-03 -1.2423717414916881e-03 9.6060325129702093e-04  5.4029870603856398e-03 -1.7035491236259066e-03 1.6775711477296563e-03  5.5854675010968040e-03 -2.6071219525595399e-03 2.6147385912335453e-03  5.5416995478521002e-03 -2.6236024207843662e-03 2.0771469305043682e-03  5.4239742871187869e-03 -3.2633637039549820e-03 1.1893076967405504e-03  5.9630020146783811e-03 -2.6136805891844601e-03 1.9701882587744900e-03  5.4654497051249643e-03 -2.6340566552129022e-03 1.8742264577908362e-03  5.4193404976070310e-03 -1.9193512389255546e-03 2.1472355968648548e-03  4.8167988302186054e-03 -2.1716829836726332e-03 1.9048339184586120e-03  5.4462590417481433e-03 -1.3318939385022460e-03 1.4750077806282768e-03  4.6113231774030502e-03 -1.1867309943320681e-03 1.5167437540970002e-03  3.3644481176524949e-03 -5.0611495314465088e-04 1.7300914673567373e-03  2.8873204518967328e-03 -8.3866152568380658e-04 1.9833108793160248e-03  -2.3208318776155132e-04 1.5712259773166203e-03 -1.1055686885563193e-03  1.6031406617706078e-03 3.5291261924733926e-04 9.4988027685662211e-04  1.2996550834083128e-03 -3.3718861177987495e-04 -5.8892780542999963e-05  1.0691715969629323e-03 -6.9051888763938646e-04 -1.1066814483539455e-03  -1.2547179168521271e-04 -3.2118152046576697e-04 -4.2931354624371808e-04  -6.6905446547516913e-04 2.9384850641918012e-04 -7.6927829033079540e-04  9.0201620546508966e-04 -6.0066479366835922e-04 -1.3225822480288818e-03  5.0084614677842340e-04 -1.7730710162086182e-03 -1.4211400785874738e-03  1.2500340945320658e-04 -3.0197296382712064e-03 -1.6693063564116422e-04  4.3002740838922536e-04 -3.2931153545792376e-03 1.0259961335280167e-03  1.6160766962709475e-03 -2.9569652965790887e-03 8.4821340298085236e-04  1.1725456006558524e-03 -3.0262785131028058e-03 -9.3537123878148639e-04  1.1806634503503852e-03 -2.3138671834898429e-03 -1.2395239391651319e-03  1.0260600801149120e-03 -1.1317202027468878e-03 -1.3236150694576941e-03  4.5790476649556142e-05 1.3549492409962942e-04 -2.9444830308429154e-03  -5.6209174934195038e-04 4.5565211141130192e-04 -2.2735020315887608e-03  4.9528943889031818e-04 1.8789561202691815e-04 -1.8653113273277002e-03  5.8632341234749320e-04 -1.0603950195146385e-05 -2.9169791035628220e-03  9.5441720840683730e-04 -7.7057305795462665e-04 -4.4858419312056889e-03  1.1606605919740854e-03 -7.8340971248954479e-04 -5.0493121754670361e-03  2.3280605266733116e-03 -1.9502134423136274e-04 -4.5652888614403347e-03  2.2129780137064227e-03 -5.9859689573517848e-04 -4.5486172509649628e-03  1.8058643585831761e-03 -6.1939894783089044e-04 -4.9355576364906789e-03  1.0831314913498115e-03 7.0999111918452075e-04 -3.9128302891124197e-03  -8.3421523734574833e-04 2.6971737954956344e-03 -2.2760047070025549e-03  -1.4663854441129514e-03 1.2763861608514034e-03 -1.1082711547345716e-03  -1.3207630927260800e-03 5.2048412292913344e-04 -4.7537175738368906e-04  -1.7642299593632605e-03 5.1369992292001987e-04 -1.4598530575454542e-03  -2.1746865486303199e-03 1.2092574501615643e-03 -1.4617005462627670e-03  -2.4672519103824931e-03 1.2746728121802468e-03 -1.2806809878451479e-03  -2.4013047100765986e-03 2.1209643945491892e-03 -5.7507121257715404e-04  -3.2449950640607039e-03 3.0563939420042798e-03 -1.0702799742252648e-03  -4.3995604148859609e-03 3.2734439699042307e-03 -1.4855926698703387e-03  -3.0687237925027555e-03 3.4029534823449095e-03 -1.5481406032323221e-03  -2.3836548640881333e-03 3.7175621983732980e-03 -1.0890926830207839e-03  -1.7501808654728647e-03 3.3022189105856156e-03 -6.1623958733214416e-04  -6.7087695669547213e-04 3.4743595010413766e-03 -3.4682469732860401e-04  8.7258495664454833e-04 3.4959318683947223e-03 -2.1043430188829207e-03  2.2622932496457124e-03 4.2022305641329551e-03 -3.8594339100482631e-03  3.4418979907220198e-03 4.5426317314303886e-03 -4.0996182535930252e-03  4.5414366594276412e-03 4.3161691974601029e-03 -4.8211324032426490e-03  5.2632105629593024e-03 4.3914343455456247e-03 -6.0655934039056036e-03  4.3090116121697756e-03 4.3686300774044970e-03 -5.8135462796834354e-03  2.8734982958777177e-03 3.8455131955575229e-03 -4.9739321721208310e-03  2.2696486811252148e-03 3.5165243112511169e-03 -4.5313769069191623e-03  1.7406391207424826e-03 2.3850672384279066e-03 -4.6756648162761009e-03  9.5745788855849836e-04 2.3943875801818244e-03 -4.5237280926787105e-03  8.2596168392552120e-04 1.9772503906348013e-03 -2.6058365163752098e-03  1.8623044681293289e-03 2.2006977268325600e-03 -1.0551749898963770e-03  2.1823291395264813e-03 2.7560788200188405e-03 -1.3481992362658659e-04  1.6860505681278307e-03 2.4868106354495535e-03 -3.8859623139008830e-04  2.1394032001580249e-03 1.7371371653014042e-03 2.0893682652069231e-04  7.1878548166457237e-04 3.6001379663987859e-03 4.3498031725942393e-04  1.0649089662676293e-04 3.1807083818452099e-03 -8.8056650185327709e-04  1.0676028036765901e-04 1.8389591140771451e-03 -1.7650726225264205e-03  4.8511296003732275e-04 -2.7199407272093882e-04 -1.6422958901795204e-03  4.0688704455859540e-04 -5.8147493872276457e-04 -1.0563940753318861e-03  9.2958248721784732e-04 -9.0750240659002133e-04 3.4286359908377418e-04  1.4933942141763330e-03 -8.2149729013184577e-04 1.9630294056787604e-03  2.2319908623067149e-03 -1.7638316762524336e-03 3.0527427285881436e-03  1.9097166401806464e-03 -2.7603400526256677e-03 3.4107128913339084e-03  1.5844624001592404e-03 -1.4229706550519887e-03 3.4455361731028341e-03  1.2279498918676616e-03 1.1551568526460448e-03 4.6623905873930793e-03  6.9614753285416741e-04 4.0560515761842199e-03 6.8287047631108563e-03  -9.9893745491976080e-05 5.7391853400811012e-03 8.0585908459355187e-03  -2.4316344971183649e-03 6.3210948181538712e-03 7.3240836746544906e-03  -4.2480541030373723e-03 4.7913157480589221e-03 6.2308193406164555e-03  -4.8694755766021097e-03 2.5399562549503684e-03 5.3220774439451252e-03  -4.2697880944403306e-03 1.1160959363009802e-03 4.4655730736715719e-03  -3.9125896654904832e-03 2.2086963240496518e-04 4.4206297502808189e-03  -3.4331565515532130e-03 3.3324437391133691e-04 4.3748587919998153e-03  -3.9048572676451355e-03 -2.9122240425594800e-04 4.4151520206501173e-03  -4.1696557903438004e-03 -1.0457354397082265e-03 3.9704441305338564e-03  -4.3096080585601623e-03 -2.1892036088196503e-03 5.1876719347872203e-03  -3.6988721071786394e-03 -2.8605028874857021e-03 6.8880376427511237e-03  -1.8534577940075396e-03 -2.9735956281012731e-03 8.2182220703048946e-03  -4.3888693151630456e-04 -2.2004150672626475e-03 7.8290994767847739e-03  3.9475662127546338e-04 -2.6736354674437943e-03 6.1419633535942566e-03  7.5503224583201359e-05 -2.5025907050297965e-03 4.4742503537718650e-03  5.5831048068784718e-04 -2.8743442039976773e-03 5.3500207614288258e-03  2.9078936842855526e-03 -2.9779688594754922e-03 6.4487070951310139e-03  4.4686158601305263e-03 -3.1387720066019874e-03 7.1688149310874119e-03  4.1643736702732422e-03 -2.9124690930222340e-03 6.6476622398152158e-03  2.3153491924879635e-03 -2.1146927755484757e-03 7.4690293833226083e-03  1.5964916643600631e-03 -3.0859572670601421e-03 7.5320729341023752e-03  3.8100910131995175e-04 -3.8198675481300494e-03 7.0644176908759189e-03  6.5531911032562528e-04 -3.2138487755669480e-03 6.2389553460083140e-03  2.0658476243087739e-03 -2.0528854229625746e-03 6.1858899834119803e-03  4.8888957440611563e-03 -2.5178185460737849e-03 5.3617573660776239e-03  7.2476860166125045e-03 -3.7653573704499615e-03 4.2614620179104003e-03  9.2493094917204602e-03 -3.6313949959511198e-03 4.0236578601885366e-03  1.0402171002467871e-02 -3.0498919528630986e-03 4.7799997294013848e-03  1.0702343464443194e-02 -1.8434671612647686e-03 4.7253349217176166e-03  1.1372253733025800e-02 -2.0071253362185962e-03 3.4133048750668508e-03  1.2850320944145992e-02 -2.6650902309392765e-03 1.9189738036725606e-03  1.4154318193256179e-02 -2.6311532064592735e-03 5.8912784119007772e-04  1.4811154567731168e-02 -4.1502806104092571e-03 7.3239695119797137e-04  1.3740959449394465e-02 -5.1214616222318059e-03 7.9041835601539249e-04  1.3319200212711470e-02 -5.0338685409111903e-03 -1.6175661201705969e-04  1.3317160756538830e-02 -5.7067764177966265e-03 -5.1773283759023417e-04  1.3360918400983012e-02 -5.3917402940808828e-03 -9.5241789070259013e-04  -9.5775402103860467e-04 2.4310259160518172e-03 -2.5487338250210147e-03  -1.0971755942366954e-03 1.7276062773540957e-03 -2.1296697453421702e-03  -9.1907043809752757e-04 1.0545669388999264e-03 -1.7912137989185358e-03  -6.6209451891390025e-04 7.9678180808190693e-04 -1.0466699618924087e-03  -7.4999438561510878e-04 8.8893626181482308e-04 -1.4450684974503288e-03  -6.8035061579800832e-04 1.1380968575446238e-03 -1.7647649637240154e-03  -1.2358829129469051e-03 1.1019653043357086e-03 -1.4307541567286561e-03  -3.6940397512572081e-04 1.1600827139639248e-04 -1.3477926835772606e-03  -4.6829505733416051e-04 -1.2520345833266184e-04 -1.4611051709071919e-03  2.1911797581898590e-04 -2.2735312199642473e-04 -1.9621274962403528e-03  1.2332641518115361e-04 -8.3322613936129904e-04 -2.0713537743819793e-03  2.1693298708623792e-04 -1.2300432700757362e-03 -2.0510565055225625e-03  -2.4933503928817623e-05 -6.8237712774910043e-04 -1.8246182910112820e-03  2.5357216880691574e-04 3.7143192653088035e-05 -2.1630868683662785e-03  5.6200349534775798e-04 8.4789973613160277e-04 -2.6125625573570088e-03  7.6376855686794646e-04 9.7852768395229744e-04 -2.2374160760993715e-03  9.9150742741302054e-04 1.7718089435544131e-03 -2.1737916826299981e-03  1.2944236951876300e-03 2.0202405189133749e-03 -2.1575743325157300e-03  1.8788491132807161e-03 2.0780594799081000e-03 -1.8549999814777320e-03  1.8168798342611610e-03 2.8829645642482020e-03 -1.6038586532485018e-03  1.8062192603619798e-03 2.5623493693524586e-03 -1.2945444907844215e-03  1.8086408212001030e-03 2.2700505148036169e-03 -5.2284004443365522e-04  2.4207314232160076e-03 2.3336458184753869e-03 -9.2767985700628123e-05  2.4359163293916101e-03 2.2323223827856670e-03 -8.5283833751851462e-04  2.0173717561121347e-03 1.6304134000283822e-03 -6.5210877986461612e-04  1.4885873457320463e-03 8.1052742576094550e-04 4.1004121619217363e-04  1.4986831173831496e-03 2.6172285656780853e-04 1.0252301951978989e-03  1.6734650220350858e-03 4.9965412293879986e-05 1.7939285267153376e-03  1.5886092769611994e-03 2.2282038338191759e-04 1.7987129686740178e-03  1.0209020071253981e-03 3.8289947518874352e-04 1.4749372537942429e-03  4.3661100476016112e-04 -3.3935340519890862e-05 1.7277227608664286e-03  1.3581433933915007e-04 -1.5769225873056516e-05 1.3874972437880276e-03  -3.3254629158687462e-04 -1.1899025256853311e-05 1.2517137095069812e-03  -7.1294272499777551e-04 -1.8577796150448213e-04 5.7771715518804346e-04  -6.3310019591320964e-04 2.3684795731450010e-04 7.9568222920909379e-04  1.1467242652158799e-06 4.3315858488294476e-04 9.3127174400172601e-04  9.5867871240993597e-04 2.8264610837668719e-04 1.4220063466302830e-03  1.2073809951151009e-03 6.5647107974423232e-04 2.2568198394926566e-03  1.8496601184627072e-03 9.9823504665144214e-04 2.1753243808031067e-03  2.2908745578811432e-03 9.9315330832784468e-04 2.2551260492161599e-03  2.3136100112054704e-03 1.7102161659643936e-03 2.2959207983815925e-03  2.8265980299592482e-03 1.8188491214236378e-03 2.8774212911300478e-03  2.8632987930325570e-03 2.1740934631309990e-03 2.8068769036994779e-03  2.6393128034436753e-03 2.2322544146513002e-03 2.5454293023814702e-03  3.2143699710148093e-03 3.1240374005650417e-03 2.1928661641343202e-03  3.2699551768226379e-03 2.8010255713581023e-03 2.2832008173892895e-03  3.4300937382926075e-03 2.1536649307117581e-03 2.4933810372235296e-03  3.3452090023004884e-03 2.2098864705438156e-03 3.0044446144515242e-03  3.2083448468379072e-03 2.0703886260539819e-03 3.2688078639407244e-03  2.9647839636400487e-03 1.6663570102060322e-03 2.7247603272768364e-03  2.5493755430610297e-03 1.1081684248436807e-03 2.6509606452347102e-03  3.1320653759082076e-03 6.4376771435022411e-04 2.8820367861751581e-03  3.1840171248937055e-03 3.5878216417662345e-04 2.7604872320267874e-03  3.1926557249517852e-03 -1.3396004388132981e-05 2.1705468562178681e-03  3.1448170378237791e-03 -4.8836213359356535e-04 1.7968592811891523e-03  3.6346189589019666e-03 -2.9913987583919091e-04 1.1482823359772049e-03  4.2520442096794257e-03 -9.7119655411849004e-04 5.5325849109884903e-04  4.1615849688296531e-03 -5.1593274909583135e-04 4.4404722399326511e-04  4.0721581223094319e-03 -8.7540910985752830e-04 5.7467314411282448e-04  3.9302284308720429e-03 -1.3403199177630045e-03 1.6092691588615423e-04  4.3634723064415572e-03 -1.1842576160079963e-03 1.2999115972119575e-04  3.8468907176467662e-03 -1.3366524480201427e-03 9.4751841649025673e-04  3.4708281632900430e-03 -1.4904760756773014e-03 1.1599425644996189e-03  2.9645633053625312e-03 -1.4234308705876782e-03 1.5574826969234489e-03  -7.8952851111000497e-04 6.9696268937139328e-04 -2.3829154028742125e-03  1.2721994760247206e-03 1.0359833305124218e-03 -2.8442448986732939e-03  1.9314928954084912e-03 1.1361954215068648e-03 -1.0263205758912312e-03  3.1332190865331591e-03 2.3818543375750908e-03 -1.1364027150540272e-03  3.4860088776211434e-03 8.3466720404195280e-04 -1.0769444907867984e-03  2.3242875502663377e-03 2.7575477514897280e-03 -1.7648788917508777e-03  3.0563022947004818e-03 2.3697414596104732e-04 -1.7521779820521936e-03  2.8336214172170735e-03 -1.2072488758610867e-03 -3.5151199752863141e-03  6.5600684402168533e-04 -1.3929314763859847e-03 1.6771433192868239e-04  5.3126734067474762e-04 -1.5091427544285617e-03 -4.0268802886961905e-04  2.1549737492689864e-03 -2.4414081569689209e-04 -6.0812590105368950e-04  2.8841833366762539e-03 -1.7397860460147870e-04 -1.3866560833709113e-03  1.9970967473544052e-03 -9.0461307331928908e-04 -2.3967249168918734e-03  1.8916480664125399e-03 -7.0940599543420748e-04 -1.9387586106607163e-03  9.3266657539742650e-04 -4.9470733982639287e-04 -2.2642240757162887e-03  1.2106448012092434e-03 6.8931673732114081e-04 -3.5279397509857873e-03  2.4934957753424314e-03 9.6052816690496033e-04 -5.3513577662610296e-03  6.2585419403708232e-04 6.7825335221124018e-04 -5.4843959013752032e-03  2.6206312331859632e-04 -3.5376250983118951e-04 -4.2058755922749066e-03  7.0732604534396815e-04 9.1723857899515479e-04 -4.9944997438066425e-03  8.6179772260703115e-04 3.1717385684035276e-04 -7.3209247581165690e-03  1.5000321218393284e-03 -1.1814785033740398e-03 -6.7986961811936468e-03  1.4473898872255084e-03 -3.0271333821312169e-03 -6.3546173944630351e-03  1.7251988344620817e-03 -2.1531213712152083e-03 -4.1180695670684775e-03  1.7306547877695517e-03 1.2994707992901443e-05 -2.1553717375633170e-03  2.4141815077405589e-03 1.8029146108843740e-03 -2.1309563742878028e-03  2.0024661082021838e-03 1.4299815557050654e-03 -2.6798477548658143e-03  2.2513323305045499e-03 5.5642242490597878e-04 -3.9072374593857742e-03  4.4771992299108153e-04 -2.5548015998492282e-05 -3.5365697101382666e-03  2.3183137346722478e-04 9.3495272368600681e-05 -3.2462050310638705e-03  2.2182127862766985e-03 3.0384676386790549e-03 -1.3112243058732371e-03  2.0931891438561228e-03 1.9158459618981930e-03 -1.6993647144659585e-03  1.5530618668406467e-03 2.4161060289997617e-03 -2.3342978852921850e-03  2.5175533739256301e-03 1.4298851943473033e-03 -1.4842557724614026e-03  1.4316227554527295e-03 -5.2781100106246933e-04 -1.5385836462290918e-03  8.1641095235028972e-04 -9.8264117475419487e-04 -8.3659701775546606e-04  8.5734559743798919e-04 -4.7631524220956246e-04 -7.4308858463786865e-04  1.5684514464980388e-03 -1.1171189765162470e-03 -7.4571089520117579e-04  1.5937058072035262e-03 -4.5716569474086769e-04 1.3254495220177700e-03  1.4937687985604503e-03 2.3728833352681723e-05 1.0020224267680779e-03  7.6238865904833383e-04 -1.051965557512