<?xml version="1.0"?>
<VTKFile type="UnstructuredGrid"  version="0.1"  >
<UnstructuredGrid>
<Piece  NumberOfPoints="8385" NumberOfCells="35823">
<Points>
<DataArray  type="Float64"  NumberOfComponents="3"  format="ascii">0 0 -4000  0 250000 -4000  250000 0 0  250000 250000 0  130000 0 -60000  130000 250000 -60000  250000 0 -60000  250000 250000 -60000  72147.7 166878.6 0  86225.3 177671.7 0  72082.2 161278 0  80407.60000000001 166683.7 0  66765.10000000001 151053.8 0  70533.5 147695.4 0  88829.10000000001 164696.8 0  62768.1 132621.8 0  114956.1 180662.6 0  63924.4 130258.4 0  156213.5 216508.7 0  94617.8 155302.3 0  144307.5 195630.5 0  87231.39999999999 141931.8 0  68256.5 121278.3 0  69835.5 115711.4 0  95984.2 132464.1 0  116918.1 151520.9 0  96139.8 122416.1 0  78677.39999999999 102260.8 0  93451.5 115391.6 0  111847.4 131476.2 0  107207 116320.3 0  142564.4 147908.4 0  121370.1 121838.1 0  82154.39999999999 83011.2 0  84152.3 84289.39999999999 0  99259 96094.39999999999 0  106151.5 94923 0  159682.5 139591.9 0  136050.5 110604.8 0  111591.5 84279.10000000001 0  126001.6 88238.2 0  105758.7 68122.8 0  151826.4 109709.5 0  197157.2 140577 0  129859.4 33265.4 0  140000 0 0  136000 250000 0  4857.142857142332 250000 -3857.142857142872  9714.285714284615 250000 -3714.285714285747  14571.42857143168 250000 -3571.42857142848  19428.57142857481 250000 -3428.571428571329  24285.71428571539 250000 -3285.714285714253  29142.85714285597 250000 -3142.857142857177  33999.99999999657 250000 -3000.000000000101  38857.14285713715 250000 -2857.142857143025  43714.28571427773 250000 -2714.285714285949  48571.42857141832 250000 -2571.428571428873  53428.57142855891 250000 -2428.571428571797  58285.71428569948 250000 -2285.714285714721  63142.85714284007 250000 -2142.857142857645  67999.99999998066 250000 -2000.000000000569  72857.14285712125 250000 -1857.142857143493  77714.28571426184 250000 -1714.285714286416  82571.42857140242 250000 -1571.428571429341  87428.571428543 250000 -1428.571428572265  92285.71428568359 250000 -1285.714285715189  97142.85714282417 250000 -1142.857142858113  101999.9999999648 250000 -1000.000000001036  106857.1428571053 250000 -857.1428571439606  111714.2857142459 250000 -714.2857142868847  116571.4285713865 250000 -571.4285714298085  121428.5714285271 250000 -428.5714285727327  126285.7142856677 250000 -285.7142857156564  131142.8571428107 250000 -142.8571428585083  250000 240000.0000000016 0  250000 230000.0000000032 0  250000 220000.0000000048 0  250000 210000.0000000064 0  250000 200000.0000000079 0  250000 190000.0000000095 0  250000 180000.0000000111 0  250000 170000.0000000127 0  250000 160000.0000000143 0  250000 150000.0000000159 0  250000 140000.0000000175 0  250000 130000.0000000191 0  250000 119999.9999999916 0  250000 109999.9999999825 0  250000 99999.99999998408 0  250000 89999.99999998568 0  250000 79999.99999998725 0  250000 69999.99999998885 0  250000 59999.99999999045 0  250000 49999.99999999205 0  250000 39999.99999999366 0  250000 29999.99999999526 0  250000 19999.9999999968 0  250000 9999.999999998399 0  135172.4137931034 0 -137.9310344827583  130344.8275862069 0 -275.8620689655166  125517.2413793104 0 -413.7931034482749  120689.6551724138 0 -551.7241379310333  115862.0689655173 0 -689.6551724137912  111034.4827586208 0 -827.5862068965494  106206.8965517242 0 -965.5172413793075  101379.3103448277 0 -1103.448275862066  96551.72413793117 0 -1241.379310344824  91724.13793103464 0 -1379.310344827582  86896.5517241381 0 -1517.24137931034  82068.96551724157 0 -1655.172413793098  77241.37931034504 0 -1793.103448275856  72413.79310344851 0 -1931.034482758614  67586.20689655196 0 -2068.965517241373  62758.62068965542 0 -2206.896551724131  57931.03448275886 0 -2344.827586206889  53103.44827586231 0 -2482.758620689649  48275.86206896573 0 -2620.689655172408  43448.27586206916 0 -2758.620689655167  38620.68965517257 0 -2896.551724137927  33793.103448276 0 -3034.482758620686  28965.51724137944 0 -3172.413793103445  24137.93103448287 0 -3310.344827586204  19310.34482758629 0 -3448.275862068963  14482.7586206897 0 -3586.206896551723  9655.172413793145 0 -3724.137931034482  4827.586206896551 0 -3862.068965517241  0 4999.999999999225 -4000  0 9999.999999998096 -4000  0 14999.99999999756 -4000  0 19999.99999999726 -4000  0 24999.99999999649 -4000  0 29999.99999999545 -4000  0 34999.99999999351 -4000  0 39999.99999999275 -4000  0 44999.99999999197 -4000  0 49999.9999999912 -4000  0 54999.99999999042 -4000  0 59999.99999998965 -4000  0 64999.99999998888 -4000  0 69999.99999998808 -4000  0 74999.99999998731 -4000  0 79999.99999998655 -4000  0 84999.99999998577 -4000  0 89999.99999998501 -4000  0 94999.99999998423 -4000  0 99999.99999998347 -4000  0 104999.9999999827 -4000  0 109999.9999999819 -4000  0 114999.9999999811 -4000  0 119999.9999999804 -4000  0 124999.9999999824 -4000  0 130000.0000000079 -4000  0 135000.0000000178 -4000  0 140000.000000017 -4000  0 145000.0000000163 -4000  0 150000.0000000155 -4000  0 155000.0000000147 -4000  0 160000.000000014 -4000  0 165000.0000000132 -4000  0 170000.0000000124 -4000  0 175000.0000000116 -4000  0 180000.0000000109 -4000  0 185000.0000000101 -4000  0 190000.0000000093 -4000  0 195000.0000000085 -4000  0 200000.0000000078 -4000  0 205000.000000007 -4000  0 210000.0000000062 -4000  0 215000.0000000054 -4000  0 220000.0000000047 -4000  0 225000.0000000039 -4000  0 230000.0000000031 -4000  0 235000.0000000024 -4000  0 240000.0000000016 -4000  0 245000.0000000008 -4000  138499.992698711 4754.026372277331 0  137093.2670052012 9536.639699345635 0  135699.8836753657 14323.17697982435 0  134242.0997113028 19090.39455387465 0  132631.3534429766 23807.82160930602 0  130751.3712685147 28423.75111080412 0  128562.4170940472 32902.44582968431 0  126285.2564027428 37336.77035579942 0  123661.3951409534 41572.18842203188 0  120466.1639654971 45392.17900234455 0  116742.7600150611 48701.57094013265 0  112599.2779558244 51459.89351581372 0  108052.7620132346 53498.30186482816 0  103362.6013075687 55186.61489180412 0  98626.9445524631 56744.1075396087 0  93895.10465571457 58313.07723732995 0  89213.61083253716 60025.29196098565 0  84659.98679375931 62049.90630856762 0  80423.72342827682 64664.16689082998 0  77079.46520597988 68320.91799726382 0  75401.03926413733 72984.18687963787 0  75132.31546441223 77953.39118957664 0  75517.79269400188 82922.72841733029 0  75994.12798690467 87884.97931497527 0  76141.03644053877 92865.72190814259 0  75577.6917399208 97812.27627089612 0  74056.71099135675 102551.9930892217 0  71898.80264107142 107043.8044784894 0  69421.09707510214 111369.0872951042 0  66791.23439747586 115604.1050970619 0  64120.91357323291 119813.8417572768 0  61505.46198361652 124057.7414488965 0  59050.55973913459 128395.9995763311 0  56903.24970482702 132893.1998504455 0  55303.81367464051 137609.8368688517 0  54543.69409163466 142530.9149478115 0  54488.96440186739 147512.6695308264 0  54974.77359561732 152472.3067464133 0  55867.62888085351 157375.8602543657 0  57059.2217642535 162216.0105874235 0  58457.1304431001 167000.9860755429 0  59967.68958253603 171751.8163324134 0  61481.85702780542 176501.4740946017 0  63249.74457712872 181161.0445509208 0  65477.30866714627 185617.8308927955 0  68245.7959420751 189759.2433519008 0  71520.4315061924 193514.3385976385 0  75350.61144867241 196685.7937683813 0  79773.17101542671 198974.8606729538 0  84378.90699153654 200882.4207250944 0  88911.60265377768 202954.8336515224 0  93435.45084417483 205047.09581866 0  98032.2666486997 206976.2210864664 0  102616.0836544937 208935.8107130805 0  107113.0495121478 211085.573258506 0  111372.3937621359 213667.5068784722 0  114843.2448044628 217203.7046179156 0  116698.1230832934 221806.0799432901 0  117775.060870244 226673.1998860401 0  119571.7838315423 231305.7208116875 0  122475.2761019627 235353.0279900247 0  125742.3595464658 239117.4724032586 0  129161.5121633181 242745.2442007751 0  132614.792595325 246340.7012191151 0  250000 250000 -8921.902778285936  250000 250000 -19170.47581238532  250000 250000 -30942.99472097832  250000 250000 -44466.06850109496  250000 230769.2307692338 -60000  250000 211538.4615384677 -60000  250000 192307.6923077015 -60000  250000 173076.9230769353 -60000  250000 153846.1538461692 -60000  250000 134615.384615403 -60000  250000 115384.615384597 -60000  250000 96153.84615383085 -60000  250000 76923.07692306468 -60000  250000 57692.30769229849 -60000  250000 38461.53846153233 -60000  250000 19230.76923076616 -60000  250000 0 -44466.06850109696  250000 0 -30942.99472111472  250000 0 -19170.47581244904  250000 0 -8921.90277830635  232227.1661023966 0 -60000  216296.9260375522 0 -60000  202018.2515568125 0 -60000  189219.9167941597 0 -60000  177748.4479527209 0 -60000  167466.2824799582 0 -60000  158250.1197834204 0 -60000  149989.4414908582 0 -60000  142585.1882295191 0 -60000  135948.5681760333 0 -60000  232227.1661023966 250000 -60000  216296.9260375522 250000 -60000  202018.2515568125 250000 -60000  189219.9167941597 250000 -60000  177748.4479527209 250000 -60000  167466.2824799582 250000 -60000  158250.1197834204 250000 -60000  149989.4414908582 250000 -60000  142585.1882295191 250000 -60000  135948.5681760333 250000 -60000  130000 244047.61904762 -60000  130000 238095.23809524 -60000  130000 232142.85714286 -60000  130000 226190.47619048 -60000  130000 220238.0952381 -60000  130000 214285.7142857199 -60000  130000 208333.3333333399 -60000  130000 202380.9523809599 -60000  130000 196428.5714285799 -60000  130000 190476.1904761999 -60000  130000 184523.8095238199 -60000  130000 178571.4285714399 -60000  130000 172619.0476190599 -60000  130000 166666.6666666799 -60000  130000 160714.2857142999 -60000  130000 154761.9047619199 -60000  130000 148809.5238095399 -60000  130000 142857.1428571599 -60000  130000 136904.7619047798 -60000  130000 130952.3809523998 -60000  130000 125000.0000000169 -60000  130000 119047.6190476054 -60000  130000 113095.2380
[...]
<PointData  Vectors="slip true"> 
<DataArray  type="Float64"  Name="slip true"  NumberOfComponents="3" format="ascii">-3.0121552397303894e-16 -7.5303880993259736e-17 0.0000000000000000e+00  -6.8556337261680520e-15 -1.7139084315420130e-15 0.0000000000000000e+00  -1.1215347736599701e-40 -2.8038369341499253e-41 0.0000000000000000e+00  -2.5526013792243163e-39 -6.3815034480607908e-40 0.0000000000000000e+00  -5.1671200191439845e-12 -1.2917800047859961e-12 0.0000000000000000e+00  -1.1760310957137890e-10 -2.9400777392844726e-11 0.0000000000000000e+00  -1.1215347736599701e-40 -2.8038369341499253e-41 0.0000000000000000e+00  -2.5526013792243163e-39 -6.3815034480607908e-40 0.0000000000000000e+00  -6.2632172665849739e-01 -1.5658043166462435e-01 0.0000000000000000e+00  -2.1196581544400317e-01 -5.2991453861000792e-02 0.0000000000000000e+00  -1.0066961838759694e+00 -2.5167404596899234e-01 0.0000000000000000e+00  -7.4361021173724540e-01 -1.8590255293431135e-01 0.0000000000000000e+00  -1.4833600195334131e+00 -3.7084000488335328e-01 0.0000000000000000e+00  -2.1616003043988972e+00 -5.4040007609972429e-01 0.0000000000000000e+00  -7.3094060904819413e-01 -1.8273515226204853e-01 0.0000000000000000e+00  -1.8876942732032280e+00 -4.7192356830080701e-01 0.0000000000000000e+00  -7.6205879356154279e-03 -1.9051469839038570e-03 0.0000000000000000e+00  -2.0962470136101894e+00 -5.2406175340254735e-01 0.0000000000000000e+00  -1.7095110019083623e-10 -4.2737775047709058e-11 0.0000000000000000e+00  -1.0532032004346610e+00 -2.6330080010866524e-01 0.0000000000000000e+00  -5.9390575468547068e-07 -1.4847643867136767e-07 0.0000000000000000e+00  -2.9376257356210087e+00 -7.3440643390525218e-01 0.0000000000000000e+00  -2.5765075442510299e+00 -6.4412688606275748e-01 0.0000000000000000e+00  -2.3935954264256760e+00 -5.9839885660641901e-01 0.0000000000000000e+00  -2.0958684477423670e+00 -5.2396711193559176e-01 0.0000000000000000e+00  -7.4273033871393279e-02 -1.8568258467848320e-02 0.0000000000000000e+00  -1.9409296843183010e+00 -4.8523242107957526e-01 0.0000000000000000e+00  -1.5221018312645842e+00 -3.8052545781614605e-01 0.0000000000000000e+00  -1.9487351913199664e+00 -4.8718379782999160e-01 0.0000000000000000e+00  -3.1598143603988388e-01 -7.8995359009970970e-02 0.0000000000000000e+00  -4.9749214995514640e-01 -1.2437303748878660e-01 0.0000000000000000e+00  -1.5067965037162361e-04 -3.7669912592905902e-05 0.0000000000000000e+00  -5.1012257172538579e-02 -1.2753064293134645e-02 0.0000000000000000e+00  -2.5026287987479068e-01 -6.2565719968697669e-02 0.0000000000000000e+00  -2.8121569181694267e-01 -7.0303922954235668e-02 0.0000000000000000e+00  -3.7607545385440577e-01 -9.4018863463601443e-02 0.0000000000000000e+00  -1.5544661304912410e-01 -3.8861653262281026e-02 0.0000000000000000e+00  -4.5545754196738352e-07 -1.1386438549184588e-07 0.0000000000000000e+00  -9.7014089609873491e-04 -2.4253522402468373e-04 0.0000000000000000e+00  -2.4191264295390490e-02 -6.0478160738476226e-03 0.0000000000000000e+00  -2.2787378375262964e-03 -5.6968445938157411e-04 0.0000000000000000e+00  -6.3552943795412995e-03 -1.5888235948853249e-03 0.0000000000000000e+00  -5.9870277613550006e-06 -1.4967569403387502e-06 0.0000000000000000e+00  -4.3523059808443855e-15 -1.0880764952110964e-15 0.0000000000000000e+00  -6.6531946494189520e-08 -1.6632986623547380e-08 0.0000000000000000e+00  -3.3032293142223681e-13 -8.2580732855559203e-14 0.0000000000000000e+00  -2.3982286061189176e-11 -5.9955715152972939e-12 0.0000000000000000e+00  -4.5102979428861169e-14 -1.1275744857215292e-14 0.0000000000000000e+00  -2.6371439341259907e-13 -6.5928598353149768e-14 0.0000000000000000e+00  -1.3703560260255914e-12 -3.4258900650639786e-13 0.0000000000000000e+00  -6.3285464376902730e-12 -1.5821366094225683e-12 0.0000000000000000e+00  -2.5974398904695266e-11 -6.4935997261738165e-12 0.0000000000000000e+00  -9.4745374806936945e-11 -2.3686343701734236e-11 0.0000000000000000e+00  -3.0714362653092081e-10 -7.6785906632730202e-11 0.0000000000000000e+00  -8.8490362639849641e-10 -2.2122590659962410e-10 0.0000000000000000e+00  -2.2657992014107209e-09 -5.6644980035268022e-10 0.0000000000000000e+00  -5.1560585615912923e-09 -1.2890146403978231e-09 0.0000000000000000e+00  -1.0427621065639405e-08 -2.6069052664098511e-09 0.0000000000000000e+00  -1.8742331608119204e-08 -4.6855829020298011e-09 0.0000000000000000e+00  -2.9938702303017764e-08 -7.4846755757544409e-09 0.0000000000000000e+00  -4.2502385257659951e-08 -1.0625596314414988e-08 0.0000000000000000e+00  -5.3624667547973190e-08 -1.3406166886993298e-08 0.0000000000000000e+00  -6.0129404025947006e-08 -1.5032351006486752e-08 0.0000000000000000e+00  -5.9921153268135728e-08 -1.4980288317033932e-08 0.0000000000000000e+00  -5.3069427778680198e-08 -1.3267356944670050e-08 0.0000000000000000e+00  -4.1771456995741165e-08 -1.0442864248935291e-08 0.0000000000000000e+00  -2.9220377355230657e-08 -7.3050943388076642e-09 0.0000000000000000e+00  -1.8166154102652718e-08 -4.5415385256631796e-09 0.0000000000000000e+00  -1.0037166887763083e-08 -2.5092917219407708e-09 0.0000000000000000e+00  -4.9286760493164816e-09 -1.2321690123291204e-09 0.0000000000000000e+00  -2.1509007947275639e-09 -5.3772519868189099e-10 0.0000000000000000e+00  -8.3422166342435061e-10 -2.0855541585608765e-10 0.0000000000000000e+00  -2.8755010108894500e-10 -7.1887525272236251e-11 0.0000000000000000e+00  -8.8087962158485624e-11 -2.2021990539621406e-11 0.0000000000000000e+00  -4.5245942059759017e-38 -1.1311485514939754e-38 0.0000000000000000e+00  -6.2460096378221485e-37 -1.5615024094555371e-37 0.0000000000000000e+00  -6.7150931976566836e-36 -1.6787732994141709e-36 0.0000000000000000e+00  -5.6224786967188938e-35 -1.4056196741797234e-35 0.0000000000000000e+00  -3.6663166589209648e-34 -9.1657916473024121e-35 0.0000000000000000e+00  -1.8619092316993904e-33 -4.6547730792484759e-34 0.0000000000000000e+00  -7.3639938624854041e-33 -1.8409984656213510e-33 0.0000000000000000e+00  -2.2682697970559414e-32 -5.6706744926398534e-33 0.0000000000000000e+00  -5.4412963762103429e-32 -1.3603240940525857e-32 0.0000000000000000e+00  -1.0165679958048320e-31 -2.5414199895120801e-32 0.0000000000000000e+00  -1.4790977062721877e-31 -3.6977442656804693e-32 0.0000000000000000e+00  -1.6760372777977589e-31 -4.1900931944943974e-32 0.0000000000000000e+00  -1.4790977062725240e-31 -3.6977442656813101e-32 0.0000000000000000e+00  -1.0165679958047453e-31 -2.5414199895118633e-32 0.0000000000000000e+00  -5.4412963762096477e-32 -1.3603240940524119e-32 0.0000000000000000e+00  -2.2682697970555547e-32 -5.6706744926388866e-33 0.0000000000000000e+00  -7.3639938624839385e-33 -1.8409984656209846e-33 0.0000000000000000e+00  -1.8619092316989141e-33 -4.6547730792472853e-34 0.0000000000000000e+00  -3.6663166589198705e-34 -9.1657916472996762e-35 0.0000000000000000e+00  -5.6224786967171362e-35 -1.4056196741792840e-35 0.0000000000000000e+00  -6.7150931976543930e-36 -1.6787732994135983e-36 0.0000000000000000e+00  -6.2460096378197522e-37 -1.5615024094549380e-37 0.0000000000000000e+00  -4.5245942059739081e-38 -1.1311485514934770e-38 0.0000000000000000e+00  -2.5526013792230827e-39 -6.3815034480577068e-40 0.0000000000000000e+00  -1.3262128081065676e-12 -3.3155320202664189e-13 0.0000000000000000e+00  -4.7389297322911057e-12 -1.1847324330727764e-12 0.0000000000000000e+00  -1.5070923931653710e-11 -3.7677309829134276e-12 0.0000000000000000e+00  -4.2657170408283134e-11 -1.0664292602070784e-11 0.0000000000000000e+00  -1.0745750862562338e-10 -2.6864377156405845e-11 0.0000000000000000e+00  -2.4092066220207600e-10 -6.0230165550519000e-11 0.0000000000000000e+00  -4.8073294588739971e-10 -1.2018323647184993e-10 0.0000000000000000e+00  -8.5374128249913070e-10 -2.1343532062478268e-10 0.0000000000000000e+00  -1.3494016449326635e-09 -3.3735041123316587e-10 0.0000000000000000e+00  -1.8982296193400132e-09 -4.7455740483500330e-10 0.0000000000000000e+00  -2.3765601661013791e-09 -5.9414004152534478e-10 0.0000000000000000e+00  -2.6481430334981253e-09 -6.6203575837453132e-10 0.0000000000000000e+00  -2.6261928918055292e-09 -6.5654822295138229e-10 0.0000000000000000e+00  -2.3179515901314234e-09 -5.7948789753285584e-10 0.0000000000000000e+00  -1.8208520484546345e-09 -4.5521301211365863e-10 0.0000000000000000e+00  -1.2730267042341606e-09 -3.1825667605854016e-10 0.0000000000000000e+00  -7.9212355191904563e-10 -1.9803088797976141e-10 0.0000000000000000e+00  -4.3867299106094271e-10 -1.0966824776523568e-10 0.0000000000000000e+00  -2.1621281091599916e-10 -5.4053202728999790e-11 0.0000000000000000e+00  -9.4845014533220376e-11 -2.3711253633305094e-11 0.0000000000000000e+00  -3.7028843592969958e-11 -9.2572108982424896e-12 0.0000000000000000e+00  -1.2866438502693104e-11 -3.2166096256732759e-12 0.0000000000000000e+00  -3.9789557120020847e-12 -9.9473892800052118e-13 0.0000000000000000e+00  -1.0951470037721422e-12 -2.7378675094303556e-13 0.0000000000000000e+00  -2.6826764127775125e-13 -6.7066910319437813e-14 0.0000000000000000e+00  -5.8486646378313453e-14 -1.4621661594578363e-14 0.0000000000000000e+00  -1.1348480243348449e-14 -2.8371200608371122e-15 0.0000000000000000e+00  -1.9597977268431534e-15 -4.8994943171078835e-16 0.0000000000000000e+00  -1.4826347715139774e-15 -3.7065869287849436e-16 0.0000000000000000e+00  -6.8556337261641550e-15 -1.7139084315410388e-15 0.0000000000000000e+00  -2.9779515446832153e-14 -7.4448788617080383e-15 0.0000000000000000e+00  -1.2151901541763362e-13 -3.0379753854408405e-14 0.0000000000000000e+00  -4.6582999782418980e-13 -1.1645749945604745e-13 0.0000000000000000e+00  -1.6775182633499048e-12 -4.1937956583747619e-13 0.0000000000000000e+00  -5.6749711352041762e-12 -1.4187427838010441e-12 0.0000000000000000e+00  -1.8035020969149890e-11 -4.5087552422874725e-12 0.0000000000000000e+00  -5.3842627009768088e-11 -1.3460656752442022e-11 0.0000000000000000e+00  -1.5100538177089836e-10 -3.7751345442724590e-11 0.0000000000000000e+00  -3.9784619148893975e-10 -9.9461547872234936e-11 0.0000000000000000e+00  -9.8467878072436982e-10 -2.4616969518109245e-10 0.0000000000000000e+00  -2.2894467581809163e-09 -5.7236168954522908e-10 0.0000000000000000e+00  -5.0006114655380342e-09 -1.2501528663845086e-09 0.0000000000000000e+00  -1.0260588513260947e-08 -2.5651471283152368e-09 0.0000000000000000e+00  -1.9777802007721340e-08 -4.9444505019303351e-09 0.0000000000000000e+00  -3.5812972856679305e-08 -8.9532432141698262e-09 0.0000000000000000e+00  -6.0919918978759183e-08 -1.5229979744689796e-08 0.0000000000000000e+00  -9.7349753339430162e-08 -2.4337438334857540e-08 0.0000000000000000e+00  -1.4613928854866061e-07 -3.6534822137165153e-08 0.0000000000000000e+00  -2.0608942943687493e-07 -5.1522357359218733e-08 0.0000000000000000e+00  -2.7302413505314746e-07 -6.8256033763286866e-08 0.0000000000000000e+00  -3.3978402597915440e-07 -8.4946006494788599e-08 0.0000000000000000e+00  -3.9724777248605499e-07 -9.9311943121513746e-08 0.0000000000000000e+00  -4.3629132554193595e-07 -1.0907283138548399e-07 0.0000000000000000e+00  -4.5014069887703647e-07 -1.1253517471925912e-07 0.0000000000000000e+00  -4.3629132554193442e-07 -1.0907283138548360e-07 0.0000000000000000e+00  -3.9724777248608040e-07 -9.9311943121520099e-08 0.0000000000000000e+00  -3.3978402597918817e-07 -8.4946006494797043e-08 0.0000000000000000e+00  -2.7302413505318336e-07 -6.8256033763295839e-08 0.0000000000000000e+00  -2.0608942943690789e-07 -5.1522357359226972e-08 0.0000000000000000e+00  -1.4613928854868814e-07 -3.6534822137172035e-08 0.0000000000000000e+00  -9.7349753339451947e-08 -2.4337438334862987e-08 0.0000000000000000e+00  -6.0919918978774985e-08 -1.5229979744693746e-08 0.0000000000000000e+00  -3.5812972856689860e-08 -8.9532432141724649e-09 0.0000000000000000e+00  -1.9777802007727594e-08 -4.9444505019318985e-09 0.0000000000000000e+00  -1.0260588513264592e-08 -2.5651471283161479e-09 0.0000000000000000e+00  -5.0006114655399889e-09 -1.2501528663849972e-09 0.0000000000000000e+00  -2.2894467581818841e-09 -5.7236168954547103e-10 0.0000000000000000e+00  -9.8467878072481050e-10 -2.4616969518120262e-10 0.0000000000000000e+00  -3.9784619148913051e-10 -9.9461547872282628e-11 0.0000000000000000e+00  -1.5100538177097668e-10 -3.7751345442744170e-11 0.0000000000000000e+00  -5.3842627009797931e-11 -1.3460656752449483e-11 0.0000000000000000e+00  -1.8035020969160333e-11 -4.5087552422900833e-12 0.0000000000000000e+00  -5.6749711352076845e-12 -1.4187427838019211e-12 0.0000000000000000e+00  -1.6775182633505066e-12 -4.1937956583762664e-13 0.0000000000000000e+00  -4.6582999782432722e-13 -1.1645749945608181e-13 0.0000000000000000e+00  -1.2151901541767161e-13 -3.0379753854417903e-14 0.0000000000000000e+00  -2.9779515446846327e-14 -7.4448788617115818e-15 0.0000000000000000e+00  -2.3478504917845753e-12 -5.8696262294614382e-13 0.0000000000000000e+00  -1.5316584032558075e-11 -3.8291460081395188e-12 0.0000000000000000e+00  -9.3196823954918748e-11 -2.3299205988729687e-11 0.0000000000000000e+00  -5.3680038295039865e-10 -1.3420009573759966e-10 0.0000000000000000e+00  -2.9696329097543879e-09 -7.4240822743859697e-10 0.0000000000000000e+00  -1.6008791834468786e-08 -4.0021979586171965e-09 0.0000000000000000e+00  -8.3836672467444502e-08 -2.0959168116861125e-08 0.0000000000000000e+00  -4.1184832455338228e-07 -1.0296208113834557e-07 0.0000000000000000e+00  -1.9380145658565808e-06 -4.8450364146414521e-07 0.0000000000000000e+00  -8.6704841950570025e-06 -2.1676210487642506e-06 0.0000000000000000e+00  -3.5337180294273100e-05 -8.8342950735682749e-06 0.0000000000000000e+00  -1.2575520538027512e-04 -3.1438801345068779e-05 0.0000000000000000e+00  -3.7195541900233650e-04 -9.2988854750584125e-05 0.0000000000000000e+00  -9.3539961177851203e-04 -2.3384990294462801e-04 0.0000000000000000e+00  -2.0515790326673259e-03 -5.1289475816683147e-04 0.0000000000000000e+00  -4.0052106970667467e-03 -1.0013026742666867e-03 0.0000000000000000e+00  -7.1081952021809754e-03 -1.7770488005452438e-03 0.0000000000000000e+00  -1.1801680150412811e-02 -2.9504200376032027e-03 0.0000000000000000e+00  -1.9252423061868081e-02 -4.8131057654670203e-03 0.0000000000000000e+00  -3.3694660596045575e-02 -8.4236651490113938e-03 0.0000000000000000e+00  -6.5213718827043160e-02 -1.6303429706760790e-02 0.0000000000000000e+00  -1.2758105618964866e-01 -3.1895264047412164e-02 0.0000000000000000e+00  -2.3828973558604921e-01 -5.9572433896512303e-02 0.0000000000000000e+00  -4.1856759931246557e-01 -1.0464189982811639e-01 0.0000000000000000e+00  -6.8754506670598081e-01 -1.7188626667649520e-01 0.0000000000000000e+00  -1.0432495265587125e+00 -2.6081238163967813e-01 0.0000000000000000e+00  -1.4279592060273076e+00 -3.5698980150682691e-01 0.0000000000000000e+00  -1.7567881436405797e+00 -4.3919703591014492e-01 0.0000000000000000e+00  -1.9593695397641986e+00 -4.8984238494104965e-01 0.0000000000000000e+00  -1.9958367813865869e+00 -4.9895919534664673e-01 0.0000000000000000e+00  -1.8705520890245941e+00 -4.6763802225614853e-01 0.0000000000000000e+00  -1.6274859694813864e+00 -4.0687149237034659e-01 0.0000000000000000e+00  -1.3309336937593170e+00 -3.3273342343982926e-01 0.0000000000000000e+00  -1.0430836966912667e+00 -2.6077092417281666e-01 0.0000000000000000e+00  -8.0989820837500048e-01 -2.0247455209375012e-01 0.0000000000000000e+00  -6.5048034160951484e-01 -1.6262008540237871e-01 0.0000000000000000e+00  -5.3574071548229585e-01 -1.3393517887057396e-01 0.0000000000000000e+00  -4.4458400978807544e-01 -1.1114600244701886e-01 0.0000000000000000e+00  -3.6552115045162065e-01 -9.1380287612905162e-02 0.0000000000000000e+00  -2.9324610411252339e-01 -7.3311526028130847e-02 0.0000000000000000e+00  -2.2643781392854173e-01 -5.6609453482135433e-02 0.0000000000000000e+00  -1.6596854453177534e-01 -4.1492136132943835e-02 0.0000000000000000e+00  -1.1372255182116255e-01 -2.8430637955290636e-02 0.0000000000000000e+00  -7.5249284768541591e-02 -1.8812321192135398e-02 0.0000000000000000e+00  -4.9407356973978640e-02 -1.2351839243494660e-02 0.0000000000000000e+00  -3.2612230933674886e-02 -8.1530577334187216e-03 0.0000000000000000e+00  -2.1578618196990342e-02 -5.3946545492475854e-03 0.0000000000000000e+00  -1.4603536745199736e-02 -3.6508841862999339e-03 0.0000000000000000e+00  -1.0454230777461153e-02 -2.6135576943652882e-03 0.0000000000000000e+00  -7.1400202621892386e-03 -1.7850050655473096e-03 0.0000000000000000e+00  -4.2312535389127885e-03 -1.0578133847281971e-03 0.0000000000000000e+00  -2.2315313483998664e-03 -5.5788283709996660e-04 0.0000000000000000e+00  -1.0773127790286519e-03 -2.6932819475716297e-04 0.0000000000000000e+00  -4.6151246034955537e-04 -1.1537811508738884e-04 0.0000000000000000e+00  -1.7164416850218428e-04 -4.2911042125546069e-05 0.0000000000000000e+00  -5.4104781203626184e-05 -1.3526195300906546e-05 0.0000000000000000e+00  -1.4311566034646140e-05 -3.5778915086615350e-06 0.0000000000000000e+00  -3.6673852100204361e-06 -9.1684630250510903e-07 0.0000000000000000e+00  -9.5340298000999823e-07 -2.3835074500249956e-07 0.0000000000000000e+00  -2.1404444332986629e-07 -5.3511110832466572e-08 0.0000000000000000e+00  -4.1475872179115691e-08 -1.0368968044778923e-08 0.0000000000000000e+00  -7.3549464721423394e-09 -1.8387366180355848e-09 0.0000000000000000e+00  -1.1948992715497842e-09 -2.9872481788744606e-10 0.0000000000000000e+00  -1.7725263427704191e-10 -4.4313158569260477e-11 0.0000000000000000e+00  -2.5526013792243163e-39 -6.3815034480607908e-40 0.0000000000000000e+00  -2.5526013792243163e-39 -6.3815034480607908e-40 0.0000000000000000e+00  -2.5526013792243163e-39 -6.3815034480607908e-40 0.0000000000000000e+00  -2.5526013792243163e-39 -6.3815034480607908e-40 0.0000000000000000e+00  -5.1494785886140030e-37 -1.2873696471535008e-37 0.0000000000000000e+00  -4.1211066362915360e-35 -1.0302766590728840e-35 0.0000000000000000e+00  -1.3083826799763806e-33 -3.2709566999409515e-34 0.0000000000000000e+00  -1.6478818067481195e-32 -4.1197045168702988e-33 0.0000000000000000e+00  -8.2335602915433180e-32 -2.0583900728858295e-32 0.0000000000000000e+00  -1.6319979901251394e-31 -4.0799949753128484e-32 0.0000000000000000e+00  -1.2832814235287380e-31 -3.2082035588218449e-32 0.0000000000000000e+00  -4.0030824394143714e-32 -1.0007706098535929e-32 0.0000000000000000e+00  -4.9537889379024122e-33 -1.2384472344756031e-33 0.0000000000000000e+00  -2.4319285008152040e-34 -6.0798212520380101e-35 0.0000000000000000e+00  -4.7362481032172763e-36 -1.1840620258043191e-36 0.0000000000000000e+00  -3.6592191892519547e-38 -9.1480479731298867e-39 0.0000000000000000e+00  -1.1215347736599701e-40 -2.8038369341499253e-41 0.0000000000000000e+00  -1.1215347736599701e-40 -2.8038369341499253e-41 0.0000000000000000e+00  -1.1215347736599701e-40 -2.8038369341499253e-41 0.0000000000000000e+00  -1.1215347736599701e-40 -2.8038369341499253e-41 0.0000000000000000e+00  -1.8522706669395907e-34 -4.6306766673489767e-35 0.0000000000000000e+00  -1.8114578077204179e-29 -4.5286445193010448e-30 0.0000000000000000e+00  -1.8308629324877131e-25 -4.5771573312192827e-26 0.0000000000000000e+00  -2.9912484608243644e-22 -7.4781211520609111e-23 0.0000000000000000e+00  -1.1314652057794364e-19 -2.8286630144485910e-20 0.0000000000000000e+00  -1.3222892501128469e-17 -3.3057231252821173e-18 0.0000000000000000e+00  -6.0191902103867502e-16 -1.5047975525966875e-16 0.0000000000000000e+00  -1.2855425697893183e-14 -3.2138564244732957e-15 0.0000000000000000e+00  -1.4957624932197550e-13 -3.7394062330493875e-14 0.0000000000000000e+00  -1.0689851865793651e-12 -2.6724629664484127e-13 0.0000000000000000e+00  -4.2157486064361873e-33 -1.0539371516090468e-33 0.0000000000000000e+00  -4.1228589670066628e-28 -1.0307147417516657e-28 0.0000000000000000e+00  -4.1670248274047062e-24 -1.0417562068511765e-24 0.0000000000000000e+00  -6.8080501167035828e-21 -1.7020125291758957e-21 0.0000000000000000e+00  -2.5752029385515604e-18 -6.4380073463789011e-19 0.0000000000000000e+00  -3.0095164615866523e-16 -7.5237911539666307e-17 0.0000000000000000e+00  -1.3699613773638553e-14 -3.4249034434096381e-15 0.0000000000000000e+00  -2.9258814