<?xml version="1.0"?>
<VTKFile type="UnstructuredGrid"  version="0.1"  >
<UnstructuredGrid>
<Piece  NumberOfPoints="8385" NumberOfCells="35823">
<Points>
<DataArray  type="Float64"  NumberOfComponents="3"  format="ascii">0 0 -4000  0 250000 -4000  250000 0 0  250000 250000 0  130000 0 -60000  130000 250000 -60000  250000 0 -60000  250000 250000 -60000  72147.7 166878.6 0  86225.3 177671.7 0  72082.2 161278 0  80407.60000000001 166683.7 0  66765.10000000001 151053.8 0  70533.5 147695.4 0  88829.10000000001 164696.8 0  62768.1 132621.8 0  114956.1 180662.6 0  63924.4 130258.4 0  156213.5 216508.7 0  94617.8 155302.3 0  144307.5 195630.5 0  87231.39999999999 141931.8 0  68256.5 121278.3 0  69835.5 115711.4 0  95984.2 132464.1 0  116918.1 151520.9 0  96139.8 122416.1 0  78677.39999999999 102260.8 0  93451.5 115391.6 0  111847.4 131476.2 0  107207 116320.3 0  142564.4 147908.4 0  121370.1 121838.1 0  82154.39999999999 83011.2 0  84152.3 84289.39999999999 0  99259 96094.39999999999 0  106151.5 94923 0  159682.5 139591.9 0  136050.5 110604.8 0  111591.5 84279.10000000001 0  126001.6 88238.2 0  105758.7 68122.8 0  151826.4 109709.5 0  197157.2 140577 0  129859.4 33265.4 0  140000 0 0  136000 250000 0  4857.142857142332 250000 -3857.142857142872  9714.285714284615 250000 -3714.285714285747  14571.42857143168 250000 -3571.42857142848  19428.57142857481 250000 -3428.571428571329  24285.71428571539 250000 -3285.714285714253  29142.85714285597 250000 -3142.857142857177  33999.99999999657 250000 -3000.000000000101  38857.14285713715 250000 -2857.142857143025  43714.28571427773 250000 -2714.285714285949  48571.42857141832 250000 -2571.428571428873  53428.57142855891 250000 -2428.571428571797  58285.71428569948 250000 -2285.714285714721  63142.85714284007 250000 -2142.857142857645  67999.99999998066 250000 -2000.000000000569  72857.14285712125 250000 -1857.142857143493  77714.28571426184 250000 -1714.285714286416  82571.42857140242 250000 -1571.428571429341  87428.571428543 250000 -1428.571428572265  92285.71428568359 250000 -1285.714285715189  97142.85714282417 250000 -1142.857142858113  101999.9999999648 250000 -1000.000000001036  106857.1428571053 250000 -857.1428571439606  111714.2857142459 250000 -714.2857142868847  116571.4285713865 250000 -571.4285714298085  121428.5714285271 250000 -428.5714285727327  126285.7142856677 250000 -285.7142857156564  131142.8571428107 250000 -142.8571428585083  250000 240000.0000000016 0  250000 230000.0000000032 0  250000 220000.0000000048 0  250000 210000.0000000064 0  250000 200000.0000000079 0  250000 190000.0000000095 0  250000 180000.0000000111 0  250000 170000.0000000127 0  250000 160000.0000000143 0  250000 150000.0000000159 0  250000 140000.0000000175 0  250000 130000.0000000191 0  250000 119999.9999999916 0  250000 109999.9999999825 0  250000 99999.99999998408 0  250000 89999.99999998568 0  250000 79999.99999998725 0  250000 69999.99999998885 0  250000 59999.99999999045 0  250000 49999.99999999205 0  250000 39999.99999999366 0  250000 29999.99999999526 0  250000 19999.9999999968 0  250000 9999.999999998399 0  135172.4137931034 0 -137.9310344827583  130344.8275862069 0 -275.8620689655166  125517.2413793104 0 -413.7931034482749  120689.6551724138 0 -551.7241379310333  115862.0689655173 0 -689.6551724137912  111034.4827586208 0 -827.5862068965494  106206.8965517242 0 -965.5172413793075  101379.3103448277 0 -1103.448275862066  96551.72413793117 0 -1241.379310344824  91724.13793103464 0 -1379.310344827582  86896.5517241381 0 -1517.24137931034  82068.96551724157 0 -1655.172413793098  77241.37931034504 0 -1793.103448275856  72413.79310344851 0 -1931.034482758614  67586.20689655196 0 -2068.965517241373  62758.62068965542 0 -2206.896551724131  57931.03448275886 0 -2344.827586206889  53103.44827586231 0 -2482.758620689649  48275.86206896573 0 -2620.689655172408  43448.27586206916 0 -2758.620689655167  38620.68965517257 0 -2896.551724137927  33793.103448276 0 -3034.482758620686  28965.51724137944 0 -3172.413793103445  24137.93103448287 0 -3310.344827586204  19310.34482758629 0 -3448.275862068963  14482.7586206897 0 -3586.206896551723  9655.172413793145 0 -3724.137931034482  4827.586206896551 0 -3862.068965517241  0 4999.999999999225 -4000  0 9999.999999998096 -4000  0 14999.99999999756 -4000  0 19999.99999999726 -4000  0 24999.99999999649 -4000  0 29999.99999999545 -4000  0 34999.99999999351 -4000  0 39999.99999999275 -4000  0 44999.99999999197 -4000  0 49999.9999999912 -4000  0 54999.99999999042 -4000  0 59999.99999998965 -4000  0 64999.99999998888 -4000  0 69999.99999998808 -4000  0 74999.99999998731 -4000  0 79999.99999998655 -4000  0 84999.99999998577 -4000  0 89999.99999998501 -4000  0 94999.99999998423 -4000  0 99999.99999998347 -4000  0 104999.9999999827 -4000  0 109999.9999999819 -4000  0 114999.9999999811 -4000  0 119999.9999999804 -4000  0 124999.9999999824 -4000  0 130000.0000000079 -4000  0 135000.0000000178 -4000  0 140000.000000017 -4000  0 145000.0000000163 -4000  0 150000.0000000155 -4000  0 155000.0000000147 -4000  0 160000.000000014 -4000  0 165000.0000000132 -4000  0 170000.0000000124 -4000  0 175000.0000000116 -4000  0 180000.0000000109 -4000  0 185000.0000000101 -4000  0 190000.0000000093 -4000  0 195000.0000000085 -4000  0 200000.0000000078 -4000  0 205000.000000007 -4000  0 210000.0000000062 -4000  0 215000.0000000054 -4000  0 220000.0000000047 -4000  0 225000.0000000039 -4000  0 230000.0000000031 -4000  0 235000.0000000024 -4000  0 240000.0000000016 -4000  0 245000.0000000008 -4000  138499.992698711 4754.026372277331 0  137093.2670052012 9536.639699345635 0  135699.8836753657 14323.17697982435 0  134242.0997113028 19090.39455387465 0  132631.3534429766 23807.82160930602 0  130751.3712685147 28423.75111080412 0  128562.4170940472 32902.44582968431 0  126285.2564027428 37336.77035579942 0  123661.3951409534 41572.18842203188 0  120466.1639654971 45392.17900234455 0  116742.7600150611 48701.57094013265 0  112599.2779558244 51459.89351581372 0  108052.7620132346 53498.30186482816 0  103362.6013075687 55186.61489180412 0  98626.9445524631 56744.1075396087 0  93895.10465571457 58313.07723732995 0  89213.61083253716 60025.29196098565 0  84659.98679375931 62049.90630856762 0  80423.72342827682 64664.16689082998 0  77079.46520597988 68320.91799726382 0  75401.03926413733 72984.18687963787 0  75132.31546441223 77953.39118957664 0  75517.79269400188 82922.72841733029 0  75994.12798690467 87884.97931497527 0  76141.03644053877 92865.72190814259 0  75577.6917399208 97812.27627089612 0  74056.71099135675 102551.9930892217 0  71898.80264107142 107043.8044784894 0  69421.09707510214 111369.0872951042 0  66791.23439747586 115604.1050970619 0  64120.91357323291 119813.8417572768 0  61505.46198361652 124057.7414488965 0  59050.55973913459 128395.9995763311 0  56903.24970482702 132893.1998504455 0  55303.81367464051 137609.8368688517 0  54543.69409163466 142530.9149478115 0  54488.96440186739 147512.6695308264 0  54974.77359561732 152472.3067464133 0  55867.62888085351 157375.8602543657 0  57059.2217642535 162216.0105874235 0  58457.1304431001 167000.9860755429 0  59967.68958253603 171751.8163324134 0  61481.85702780542 176501.4740946017 0  63249.74457712872 181161.0445509208 0  65477.30866714627 185617.8308927955 0  68245.7959420751 189759.2433519008 0  71520.4315061924 193514.3385976385 0  75350.61144867241 196685.7937683813 0  79773.17101542671 198974.8606729538 0  84378.90699153654 200882.4207250944 0  88911.60265377768 202954.8336515224 0  93435.45084417483 205047.09581866 0  98032.2666486997 206976.2210864664 0  102616.0836544937 208935.8107130805 0  107113.0495121478 211085.573258506 0  111372.3937621359 213667.5068784722 0  114843.2448044628 217203.7046179156 0  116698.1230832934 221806.0799432901 0  117775.060870244 226673.1998860401 0  119571.7838315423 231305.7208116875 0  122475.2761019627 235353.0279900247 0  125742.3595464658 239117.4724032586 0  129161.5121633181 242745.2442007751 0  132614.792595325 246340.7012191151 0  250000 250000 -8921.902778285936  250000 250000 -19170.47581238532  250000 250000 -30942.99472097832  250000 250000 -44466.06850109496  250000 230769.2307692338 -60000  250000 211538.4615384677 -60000  250000 192307.6923077015 -60000  250000 173076.9230769353 -60000  250000 153846.1538461692 -60000  250000 134615.384615403 -60000  250000 115384.615384597 -60000  250000 96153.84615383085 -60000  250000 76923.07692306468 -60000  250000 57692.30769229849 -60000  250000 38461.53846153233 -60000  250000 19230.76923076616 -60000  250000 0 -44466.06850109696  250000 0 -30942.99472111472  250000 0 -19170.47581244904  250000 0 -8921.90277830635  232227.1661023966 0 -60000  216296.9260375522 0 -60000  202018.2515568125 0 -60000  189219.9167941597 0 -60000  177748.4479527209 0 -60000  167466.2824799582 0 -60000  158250.1197834204 0 -60000  149989.4414908582 0 -60000  142585.1882295191 0 -60000  135948.5681760333 0 -60000  232227.1661023966 250000 -60000  216296.9260375522 250000 -60000  202018.2515568125 250000 -60000  189219.9167941597 250000 -60000  177748.4479527209 250000 -60000  167466.2824799582 250000 -60000  158250.1197834204 250000 -60000  149989.4414908582 250000 -60000  142585.1882295191 250000 -60000  135948.5681760333 250000 -60000  130000 244047.61904762 -60000  130000 238095.23809524 -60000  130000 232142.85714286 -60000  130000 226190.47619048 -60000  130000 220238.0952381 -60000  130000 214285.7142857199 -60000  130000 208333.3333333399 -60000  130000 202380.9523809599 -60000  130000 196428.5714285799 -60000  130000 190476.1904761999 -60000  130000 184523.8095238199 -60000  130000 178571.4285714399 -60000  130000 172619.0476190599 -60000  130000 166666.6666666799 -60000  130000 160714.2857142999 -60000  130000 154761.9047619199 -60000  130000 148809.5238095399 -60000  130000 142857.1428571599 -60000  130000 136904.7619047798 -60000  130000 130952.3809523998 -60000  130000 125000.0000000169 -60000  130000 119047.6190476054 -60000  130000 113095.2380
[...]
<PointData  Vectors="boundary_slip"> 
<DataArray  type="Float64"  Name="boundary_slip"  NumberOfComponents="3" format="ascii">4.0257128254902746e-01 1.3031834449864338e-01 -3.4028853780150761e-02  -7.0756983262857054e-01 -5.0264909612310182e-01 3.0587457150951547e-01  -4.0363834529420356e-02 2.2011182570602267e-02 -5.1356540340014328e-02  2.8334172133989213e-03 6.1622562342627737e-02 -1.0908817142841599e-01  -1.0240792507929020e-01 -1.7239953622126841e-01 1.7864074162876041e-03  -6.7203672009593530e-03 -1.0323814405420315e-01 -1.5877239923517347e-01  -4.0911864684312030e-02 2.1760386108660781e-02 -5.0641960996091168e-02  3.2722713839347353e-03 6.3686127687684599e-02 -1.0895008610409511e-01  -3.5142092924477825e-01 -2.3056158589014056e-01 6.0603687456541899e-01  -2.3550429738669171e-01 -1.4478886569214117e-01 1.7819669414365297e-01  -6.3015633117320380e-01 -2.7450937665492325e-01 7.8636819068586961e-01  -5.8961022367647997e-01 -2.6759419649989413e-01 5.3051738446134766e-01  -1.0196893072511695e+00 -3.5611757970750418e-01 1.1510090338301511e+00  -1.4838105725589867e+00 -5.0542647604371427e-01 1.2640609018249418e+00  -7.8260670891941531e-01 -2.9095985667503482e-01 4.6437396426088884e-01  -1.3745436259665793e+00 -6.6617483155418866e-01 1.4393223057833289e+00  -1.7741194323041376e-01 -7.4532515410391006e-02 -9.6133484645778519e-02  -1.5082834778634160e+00 -7.3810038999268757e-01 1.4563171698788957e+00  -2.3051708256181039e-02 -1.0459663747744383e-02 -1.4783189478751876e-01  -1.2838841800095906e+00 -4.1906267519589407e-01 6.3013293985894936e-01  -6.3696679520826457e-02 3.9999412431262690e-03 -1.5386985086730906e-01  -2.1492668526785939e+00 -6.5832561312549498e-01 1.1717403815921363e+00  -1.7867198491422951e+00 -8.0772921474408421e-01 1.4192442707229933e+00  -1.7300351845371764e+00 -6.6354709088705044e-01 1.3195589248300548e+00  -2.0933983302615062e+00 -6.2264364144594331e-01 9.9474217461599912e-01  -8.4562565410143542e-01 -2.8239208557934020e-01 2.0396599371316812e-01  -2.0088252711955921e+00 -5.7710285014184504e-01 9.3541248436374247e-01  -1.4062973033479285e+00 -2.5452174887666656e-01 8.7116438479745240e-01  -1.9039146617691438e+00 -5.3203005889629285e-01 9.0858055179147446e-01  -1.3632322245215871e+00 -4.1439042268503540e-01 4.7271394572421754e-01  -1.3961828447285203e+00 -3.9887690795478714e-01 5.1007965370591657e-01  -3.6979866777895892e-01 -5.3682489327675831e-02 -7.6004331487954727e-02  -9.4037301403614626e-01 -2.6436928163587903e-01 2.1033247793422161e-01  -4.0752140263327075e-01 -7.8496387531528419e-02 2.3261231271796440e-01  -4.5937581532373156e-01 -9.6749171385023341e-02 2.3787938879917794e-01  -8.9204009929401207e-01 -2.3897155841800416e-01 3.1080437780335041e-01  -7.1974416145625852e-01 -1.9523473861347554e-01 1.7575603875559759e-01  -2.0844097296623271e-01 3.6226762240495931e-02 -1.4026389089748204e-01  -4.5298633594499382e-01 -7.8148771163104730e-02 -4.6844829992813815e-02  -3.4253453283313540e-01 -8.3066831410983005e-02 -2.0919740855722312e-02  -3.0475085587806766e-01 -3.9436138452830213e-02 -7.7273205221336960e-02  -3.4774488245269755e-02 -3.0303131723596069e-02 -1.1800211318872081e-01  -2.4215453334752787e-01 1.6047623852347759e-02 -1.3250774015039857e-01  -5.1121167834831324e-02 9.5784902169942010e-02 -1.4732101526752267e-01  -2.8414816883747765e-02 -2.6005430587679471e-02 -6.6169514125786741e-02  -5.8802784016972108e-02 -7.6896236366210222e-02 -2.8858063928792269e-02  -2.7206800223859070e-02 -1.2501615257490259e-01 -1.4609092144757496e-01  -7.0683518809847445e-01 -4.9885249352098981e-01 3.0332440803922073e-01  -7.0397216944253760e-01 -4.9031944994641030e-01 2.9915430426284201e-01  -6.9961838627484663e-01 -4.7652914688859072e-01 2.9244697567212319e-01  -6.9287236246703032e-01 -4.5652706280949346e-01 2.8293107834052345e-01  -6.8437495234138090e-01 -4.3076172889588921e-01 2.7085698666193370e-01  -6.7358656573560427e-01 -3.9891335930260935e-01 2.5589290124607778e-01  -6.5946126476135003e-01 -3.6132637123285904e-01 2.3840681975813263e-01  -6.4187262546805579e-01 -3.1949769502929914e-01 2.1858645302616342e-01  -6.1945499193688391e-01 -2.7365655644601922e-01 1.9586432850848257e-01  -5.9243972001032841e-01 -2.2706983201154871e-01 1.7103010732923002e-01  -5.5975774446276938e-01 -1.8271971948281684e-01 1.4441661138917791e-01  -5.2202793864053632e-01 -1.4216298906796332e-01 1.1591828887017556e-01  -4.7909038165785667e-01 -1.0880580582237932e-01 8.6327562322645837e-02  -4.3291740423193192e-01 -8.4627301654532944e-02 5.6277099063970340e-02  -3.8353888082710458e-01 -7.3790359284331336e-02 2.6725630120072241e-02  -3.3404340680216094e-01 -7.2289941387341419e-02 -1.7621319262775637e-03  -2.8591083307322379e-01 -8.0367415186051103e-02 -2.8399947787951890e-02  -2.4085251183636305e-01 -9.5001287327896214e-02 -5.2286619900240111e-02  -1.9962387806378118e-01 -1.1402386269961871e-01 -7.3436470870239093e-02  -1.6402979145495147e-01 -1.3260752130582343e-01 -9.0915168447915903e-02  -1.3318472537942297e-01 -1.4815153035055187e-01 -1.0557818875230630e-01  -1.0682109647026031e-01 -1.6057100233897442e-01 -1.1759590570079212e-01  -8.5372959764827908e-02 -1.6695976266539603e-01 -1.2686642583667840e-01  -6.7895322751827608e-02 -1.6795408753068611e-01 -1.3394283644149943e-01  -5.3872458703582274e-02 -1.6279788329617287e-01 -1.3910444322677010e-01  -4.2746137743262316e-02 -1.5404923848346694e-01 -1.4262716402738559e-01  -3.4116471028209409e-02 -1.4046630682823574e-01 -1.4487908701863378e-01  2.5190499383030127e-03 6.2519986848515757e-02 -1.0932981463330885e-01  1.7274323450017410e-03 6.4348260670343410e-02 -1.1009160637282908e-01  3.6408470548541616e-04 6.7564319185138125e-02 -1.1135490841962251e-01  -1.3690940619138208e-03 7.1604240072195915e-02 -1.1296828567736238e-01  -3.4918105570875837e-03 7.5959998922818156e-02 -1.1501200391359323e-01  -5.5858435086064608e-03 8.0360469314020161e-02 -1.1698049403981343e-01  -7.9050903592855666e-03 8.4341049942820476e-02 -1.1913849138571612e-01  -1.0059167364673757e-02 8.7555115090158384e-02 -1.2098652550748051e-01  -1.2256052469631292e-02 8.9858478968226865e-02 -1.2255132428277019e-01  -1.4096805025253244e-02 9.0894844966047120e-02 -1.2319738102202878e-01  -1.5722734263488185e-02 9.0677118992497099e-02 -1.2289480392958442e-01  -1.7229115680231853e-02 8.9074923488556043e-02 -1.2134963522679926e-01  -1.8883217554994995e-02 8.6370511479740647e-02 -1.1878378008207009e-01  -2.0482933947038848e-02 8.2361668138815278e-02 -1.1468354028286051e-01  -2.2300072965169556e-02 7.7278712241294123e-02 -1.0936476224351302e-01  -2.3978203296223737e-02 7.1142784209405924e-02 -1.0253158659254707e-01  -2.6345204049779098e-02 6.4485187642373112e-02 -9.5421153905651993e-02  -2.8674725358695287e-02 5.7273646237046130e-02 -8.7587786638501017e-02  -3.1042233755119848e-02 4.9816599044327038e-02 -7.9534588785094729e-02  -3.3497853236379556e-02 4.2609319495759905e-02 -7.2009079243820273e-02  -3.5723223892782048e-02 3.5945094947414220e-02 -6.5164292849370795e-02  -3.7642663165013267e-02 3.0225336435693053e-02 -5.9415021519436610e-02  -3.9110467049432301e-02 2.5783225573819495e-02 -5.5017021986634815e-02  -4.0057492868259041e-02 2.3027099370909885e-02 -5.2357950500749151e-02  -5.3375491624804643e-02 -8.5622847803100186e-02 -2.8892809659929124e-02  -4.6193817276661948e-02 -9.4141994572711621e-02 -2.9533295968809995e-02  -3.7599540828414102e-02 -1.0250471560112778e-01 -3.0620426571038334e-02  -2.7572658715637261e-02 -1.1096570721438365e-01 -3.1991222844850280e-02  -1.5674844883517079e-02 -1.1889299886716767e-01 -3.3882592513664878e-02  -2.4306891797663678e-03 -1.2601942739853847e-01 -3.6179179256999983e-02  1.2345400451530467e-02 -1.3233030634826168e-01 -3.8746171710760065e-02  2.8919336747299351e-02 -1.3739719637118614e-01 -4.1743648083135236e-02  4.6785017053608303e-02 -1.4100884132157909e-01 -4.4857092245137072e-02  6.6479202980130922e-02 -1.4264657284318152e-01 -4.8278521120881726e-02  8.6605424081288962e-02 -1.4281623587067185e-01 -5.1130231832364516e-02  1.0840013125574482e-01 -1.4033624267223982e-01 -5.3986103112279672e-02  1.3183897619502710e-01 -1.3513872930851858e-01 -5.6699651520784669e-02  1.5570645120680751e-01 -1.2697489456298944e-01 -5.8545755880276745e-02  1.8051588025365511e-01 -1.1528102223566077e-01 -5.9840086336058508e-02  2.0464335731553226e-01 -1.0097816811984731e-01 -6.0129049497474656e-02  2.2930321711187038e-01 -8.3005301173227464e-02 -5.9611544680034177e-02  2.5269105593781055e-01 -6.2738541693634658e-02 -5.8140715132736581e-02  2.7536244273857469e-01 -4.0555990653020180e-02 -5.6116180124646607e-02  2.9720191836854376e-01 -1.6563928183332889e-02 -5.3521567533876782e-02  3.1763346839803241e-01 8.2766350057061119e-03 -5.0504981964580510e-02  3.3611185030227170e-01 3.2548979475441199e-02 -4.7366687090695213e-02  3.5263351455477532e-01 5.5368991738525261e-02 -4.4338526741692010e-02  3.6693748412486343e-01 7.5859832816106573e-02 -4.1614287862038177e-02  3.7923594673613881e-01 9.4369026190810001e-02 -3.9006099691212888e-02  3.8882891269841408e-01 1.0890164836453518e-01 -3.7020460313952390e-02  3.9588093086204401e-01 1.1981528851889160e-01 -3.5500239219854277e-02  4.0023528442835837e-01 1.2648438537703144e-01 -3.4624396254995908e-02  4.0594839912009889e-01 1.3728631659444340e-01 -3.2411391781486470e-02  4.1274213019108064e-01 1.5134383266798473e-01 -2.9134380714984753e-02  4.2473747393153299e-01 1.7659325492488198e-01 -2.3089723527666667e-02  4.4277567632790471e-01 2.1546752377229458e-01 -1.3420530217936492e-02  4.6343387146015952e-01 2.6102362612931962e-01 -1.6552089812933309e-03  4.8883977153270136e-01 3.1968979581990270e-01 1.4755351634095320e-02  5.1785778316679443e-01 3.8868262542776272e-01 3.5263126409508766e-02  5.5024028057328933e-01 4.6809501580411567e-01 6.0973661983086597e-02  5.8484091002868765e-01 5.5284915048624728e-01 8.9572491738007243e-02  6.2008995125456823e-01 6.4510608686130089e-01 1.2576443787742367e-01  6.5615053101867316e-01 7.3992856891958614e-01 1.6686474035614138e-01  6.9264201587539898e-01 8.3486105031565516e-01 2.1225322453755174e-01  7.2352347344699630e-01 9.2146694711937926e-01 2.6407740480297964e-01  7.4907809955866977e-01 9.9716299546857678e-01 3.2177755656585721e-01  7.6552119054620260e-01 1.0565001079000098e+00 3.8544199760677961e-01  7.7295634631760435e-01 1.1011733641507748e+00 4.5330303761875101e-01  7.6972330104840236e-01 1.1283374286191687e+00 5.2589643690315691e-01  7.5388191185818521e-01 1.1345111173788520e+00 6.0284673075162909e-01  7.2156709011836240e-01 1.1175222705283361e+00 6.8138689829775345e-01  6.7964330988193689e-01 1.0872966062752125e+00 7.5818520666634481e-01  6.3210458558139404e-01 1.0494736699042368e+00 8.3300856498802034e-01  5.7895687403404561e-01 1.0102158627174231e+00 8.9535249967405928e-01  5.2676318988491955e-01 9.6989777845021896e-01 9.5424820137135202e-01  4.7740353545592873e-01 9.3690924794545760e-01 9.9753549842760525e-01  4.2438178857086717e-01 9.0376265145881640e-01 1.0312757414142606e+00  3.5428340367777278e-01 8.7194526615303813e-01 1.0563552449849070e+00  2.7417828144145762e-01 8.4184285959578875e-01 1.0744971695113585e+00  1.5604398869158215e-01 8.0177368208531929e-01 1.0830086518253979e+00  1.6829361747694404e-02 7.5864545999758803e-01 1.0866650419295094e+00  -1.4324244202936329e-01 7.0994118612910817e-01 1.0830653822380216e+00  -3.0934738644038501e-01 6.5071249732949921e-01 1.0692240992613049e+00  -4.6928807409012552e-01 5.8571919607309653e-01 1.0492823858526210e+00  -5.9115922508313401e-01 5.0480511625228819e-01 1.0120376068482759e+00  -6.9433632341197260e-01 4.1686708728258276e-01 9.6917097079421211e-01  -7.4289258599925367e-01 3.0984280884147825e-01 9.1175887278882417e-01  -7.6257583127499673e-01 1.9351643118160286e-01 8.4767384449879890e-01  -7.4791480067473892e-01 6.8154629376998330e-02 7.7811405856919036e-01  -7.2560733228048890e-01 -5.7381002257578882e-02 7.0812647147582819e-01  -6.9365566544155288e-01 -1.7408060703665718e-01 6.3994762532578930e-01  -6.6919201090951530e-01 -2.7749248304361812e-01 5.7729817458940003e-01  -6.5242597724641838e-01 -3.6188497156653143e-01 5.2104297037640512e-01  -6.4346073886064603e-01 -4.3035223712370430e-01 4.7061266423625081e-01  -6.4602167012633049e-01 -4.7230697400729416e-01 4.2941959898874316e-01  -6.5396506652760789e-01 -4.9827154473250557e-01 3.9413613420103399e-01  -6.6536361584537951e-01 -5.1058888611287556e-01 3.6557724577127110e-01  -6.7711627423232712e-01 -5.1460426635774870e-01 3.4278975236233328e-01  -6.8971185176737193e-01 -5.1224580264525787e-01 3.2557287738452811e-01  -6.9920832327070892e-01 -5.0810811690406854e-01 3.1507068640501457e-01  -7.0470383275326687e-01 -5.0494390157049907e-01 3.0918686525548034e-01  -5.6771583257723399e-02 -7.7772370473703542e-02 -2.9671297878578012e-02  -5.4204720067526725e-02 -7.5591273027614009e-02 -3.1797849301718042e-02  -5.0783010282226745e-02 -7.0125443846595220e-02 -3.5505077811444449e-02  -4.6173319945571008e-02 -6.2098228431457181e-02 -4.0774947071183967e-02  -4.0601686778581447e-02 -5.1861527719863063e-02 -4.7711515419994216e-02  -3.3737649913229827e-02 -4.0248093777017366e-02 -5.6256270803755455e-02  -2.4930865951258003e-02 -2.8332229512681436e-02 -6.6447898955449267e-02  -1.5573550074692404e-02 -1.6103306923531704e-02 -7.8154628775918708e-02  -4.8101319080475101e-03 -5.9918507564764491e-03 -9.0909444217570648e-02  8.1799522197056537e-03 1.1037105150489546e-03 -1.0383492137849909e-01  2.3881354771140114e-02 3.8589977655712929e-03 -1.1667918744800539e-01  4.2523754494617004e-02 -8.2306084876754434e-04 -1.2772278718940697e-01  6.4107793172574284e-02 -1.0034374362955937e-02 -1.3634794259518110e-01  8.7124807570913940e-02 -2.2321627146709374e-02 -1.4210367778768895e-01  1.1021995610102821e-01 -3.9211115213275249e-02 -1.4304542644886439e-01  1.2716434748236674e-01 -5.7595699668626231e-02 -1.3612901404408417e-01  1.3919041160256856e-01 -7.1994851786337008e-02 -1.2181925107604132e-01  1.3535626108084703e-01 -8.2913615565678500e-02 -9.4078287463156843e-02  1.1559571214487170e-01 -7.5666158830503413e-02 -5.0957272001759195e-02  6.4896646034911451e-02 -4.4448438037201707e-02 1.1533862489087872e-02  -3.7519124907049693e-02 -1.4620797488986786e-02 9.3234871565473970e-02  -1.8256069766006400e-01 1.2972010398244570e-02 1.9004107861237576e-01  -3.6930416311206848e-01 1.8733435966235785e-02 3.0179693041847028e-01  -5.9400732325488148e-01 2.0627464010399828e-03 4.3264211640970468e-01  -8.4827330263276113e-01 -3.5753691059791148e-02 5.8603013341710819e-01  -1.1042554503528661e+00 -9.6259976105805348e-02 7.5687589858496507e-01  -1.3339354580963116e+00 -1.9328149203554038e-01 9.3396015967395773e-01  -1.4898355882989596e+00 -3.1372933903373079e-01 1.0920477140374423e+00  -1.5676779580129243e+00 -4.8650390555000045e-01 1.2227078360794017e+00  -1.5425299724780945e+00 -6.4218472119527881e-01 1.3115606095856840e+00  -1.4657727565242291e+00 -7.6338803069182803e-01 1.3757096708457646e+00  -1.2926484313520958e+00 -7.2406002628771449e-01 1.3966828934634143e+00  -1.0377286610378673e+00 -6.0991702017338623e-01 1.3786983601216898e+00  -7.3731371633153198e-01 -4.4112264144861602e-01 1.3329489239129459e+00  -4.8161091154413743e-01 -2.8199819508050755e-01 1.2690147777308440e+00  -3.0796354297817086e-01 -1.4678058473289537e-01 1.1984495906547945e+00  -2.0182886937864306e-01 -4.7514843133052861e-02 1.1184808365157017e+00  -1.2982724037957424e-01 1.0543742054270258e-02 1.0232642104851619e+00  -7.4896720327790461e-02 2.3507106720352094e-02 9.1853662273769976e-01  -4.0086909577884230e-02 8.3342199093883497e-03 8.0858948733094416e-01  9.4048811860514871e-03 -2.4420704932941659e-02 6.8845435398107280e-01  4.4694663032015879e-02 -8.8835797792417195e-02 5.7262630229905676e-01  3.0257195292127118e-02 -1.5537971187575361e-01 4.7280885702833148e-01  -1.8833640253878667e-02 -1.7594075080096336e-01 3.8255318180847953e-01  -6.0127107980564164e-02 -1.6026402043736421e-01 2.9874058366550804e-01  -8.9739571957530295e-02 -1.0531915038738504e-01 2.1670896652718594e-01  -9.5889595597460561e-02 -4.5163014751839099e-02 1.3953247852584214e-01  -8.9278710262869654e-02 -2.5814839769250830e-04 7.1243604180119643e-02  -7.0333365451114987e-02 2.8088414492385253e-02 9.9619683277847645e-03  -4.9239564456892468e-02 4.2020242620758382e-02 -4.2609216740704073e-02  -3.3038159738682661e-02 4.0035554513146193e-02 -8.5627020786581243e-02  -2.0287573938681767e-02 2.7330765827857911e-02 -1.1746812757359393e-01  -1.3783817719202691e-02 6.0708639557863304e-03 -1.3734077962592034e-01  -1.1044470726996864e-02 -1.5800282993428925e-02 -1.5219874381608395e-01  -1.1585452626665282e-02 -3.7117989342317373e-02 -1.5977743083821089e-01  -1.5796220096003333e-02 -5.9054328054577700e-02 -1.6224250418393524e-01  -2.1338123302027050e-02 -7.9005741524180134e-02 -1.6055991475194442e-01  -2.8541697838065917e-02 -9.9031679742659376e-02 -1.5655658641872197e-01  -3.6368143032952389e-02 -1.1809240786176661e-01 -1.5165011962888295e-01  -4.1591170181410904e-02 -1.3388402191235810e-01 -1.4787719293257190e-01  -4.2013855976923059e-02 -1.4224117576895340e-01 -1.4605215662161453e-01  -3.9828686826992601e-02 -1.4445743678890685e-01 -1.4528752409608997e-01  -3.5831759576176868e-02 -1.4163815234945745e-01 -1.4533723198618861e-01  -3.1448673831866288e-02 -1.3514681573618859e-01 -1.4568023709501107e-01  2.8256921987824040e-03 6.1789947752063902e-02 -1.0912224855909303e-01  2.9354058544496212e-03 6.2141163039758938e-02 -1.0904255985502898e-01  3.0340972985492794e-03 6.2622631899825365e-02 -1.0916193978281190e-01  3.1352888691668422e-03 6.3292735141655398e-02 -1.0918803886022775e-01  2.2399682027786911e-03 6.6318827815979864e-02 -1.0996382271824272e-01  -6.1534959745105213e-04 7.3644737591392465e-02 -1.1288203225255179e-01  -4.2152326003372766e-03 8.2362919151751729e-02 -1.1676260181928895e-01  -8.2059036607566600e-03 9.0671070395914224e-02 -1.2151086215470654e-01  -1.1513396176652887e-02 9.4723314665880701e-02 -1.2441374216226371e-01  -1.3842212384654856e-02 9.3528213365583132e-02 -1.2322275912389501e-01  -1.7185362636421963e-02 8.7752036360503299e-02 -1.1828769842131689e-01  -2.0967368898997515e-02 7.7500515821080682e-02 -1.0779543397245805e-01  -2.6017572638081701e-02 6.4259173358150470e-02 -9.3878997280852416e-02  -3.1447375243707068e-02 4.9001877220154332e-02 -7.7743074799487222e-02  -3.6715525164816486e-02 3.4984022371018039e-02 -6.3557165815216490e-02  -3.9956251366232882e-02 2.5111374044049881e-02 -5.3962771733968011e-02  -4.1032739822009917e-02 2.1658959972466668e-02 -5.0768135912917449e-02  -4.0805796842547815e-02 2.1689176969962341e-02 -5.0882924225634181e-02  -4.0492054432830098e-02 2.1954477605211468e-02 -5.1207904971993005e-02  -4.0364111935604942e-02 2.2127356447865548e-02 -5.1459189336575659e-02  -4.3285366003039352e-02 1.9670224907577281e-02 -4.9890980238669398e-02  -4.9502307168285381e-02 1.2999189884235493e-02 -4.6826145334351969e-02  -5.8170966047268229e-02 2.7457433762398658e-03 -4.2137890471624875e-02  -6.8369648764992713e-02 -1.1680471011512138e-02 -3.5637287649094650e-02  -7.8997537621406433e-02 -2.9684214324017879e-02 -2.7917460087687709e-02  -8.8804360029608870e-02 -5.1708997214679975e-02 -1.9623514245744472e-02  -9.7153078731573028e-02 -7.6463768128030393e-02 -1.1746198122129355e-02  -1.0221346399136842e-01 -1.0558202008423326e-01 -5.2908922620085071e-03  -1.0517322613041849e-01 -1.3067932577856647e-01 -5.9371756771043065e-04  -1.0448780537060086e-01 -1.5527027029677704e-01 1.5068387580922835e-03  2.8569461442496101e-03 6.2367966644939613e-02 -1.1108236919027997e-01  2.0737594773073908e-03 5.8666825357151120e-02 -1.1559991746799854e-01  1.0863822456639275e-03 5.1861343489377758e-02 -1.2185697720345617e-01  3.6976731528202169e-04 4.0618703307143476e-02 -1.2885452588562030e-01  -2.9027575633941557e-04 2.6208116046629596e-02 -1.3592722816590930e-01  -2.8802325693869730e-04 6.5405867106144979e-03 -1.4267870750741585e-01  -5.5041050049946769e-05 -1.5071725465468132e-02 -1.4897604241573029e-01  -2.0184014537573983e-04 -3.9561642527191639